
     Program PWSCF v.6.4.1 starts on 14Dec2022 at  4: 1:28 

     This program is part of the open-source Quantum ESPRESSO suite
     for quantum simulation of materials; please cite
         "P. Giannozzi et al., J. Phys.:Condens. Matter 21 395502 (2009);
         "P. Giannozzi et al., J. Phys.:Condens. Matter 29 465901 (2017);
          URL http://www.quantum-espresso.org", 
     in publications or presentations arising from this work. More details at
     http://www.quantum-espresso.org/quote

     Parallel version (MPI), running on     1 processors

     MPI processes distributed on     1 nodes
     Waiting for input...
     Reading input from standard input

     Current dimensions of program PWSCF are:
     Max number of different atomic species (ntypx) = 10
     Max number of k-points (npk) =  40000
     Max angular momentum in pseudopotentials (lmaxx) =  3

     Subspace diagonalization in iterative solution of the eigenvalue problem:
     a serial algorithm will be used


     G-vector sticks info
     --------------------
     sticks:   dense  smooth     PW     G-vecs:    dense   smooth      PW
     Sum         545     437    145                 9459     6859    1309



     bravais-lattice index     =            1
     lattice parameter (alat)  =       6.7407  a.u.
     unit-cell volume          =     306.2710 (a.u.)^3
     number of atoms/cell      =            7
     number of atomic types    =            2
     number of electrons       =        29.00
     number of Kohn-Sham states=           19
     kinetic-energy cutoff     =      30.0000  Ry
     charge density cutoff     =     150.0000  Ry
     convergence threshold     =      1.0E-08
     mixing beta               =       0.7000
     number of iterations used =            8  plain     mixing
     Exchange-correlation      = SLA PZ NOGX NOGC ( 1  1  0  0 0 0)

     celldm(1)=   6.740653  celldm(2)=   0.000000  celldm(3)=   0.000000
     celldm(4)=   0.000000  celldm(5)=   0.000000  celldm(6)=   0.000000

     crystal axes: (cart. coord. in units of alat)
               a(1) = (   1.000000   0.000000   0.000000 )  
               a(2) = (   0.000000   1.000000   0.000000 )  
               a(3) = (   0.000000   0.000000   1.000000 )  

     reciprocal axes: (cart. coord. in units 2 pi/alat)
               b(1) = (  1.000000  0.000000  0.000000 )  
               b(2) = (  0.000000  1.000000  0.000000 )  
               b(3) = (  0.000000  0.000000  1.000000 )  


     PseudoPot. # 1 for C  read from file:
     ./C.pz-van_ak.UPF
     MD5 check sum: d40b4001ce20bbb1180eafeb54b8064c
     Pseudo is Ultrasoft, Zval =  4.0
     Generated by new atomic code, or converted to UPF format
     Using radial grid of  721 points,  4 beta functions with: 
                l(1) =   0
                l(2) =   0
                l(3) =   1
                l(4) =   1
     Q(r) pseudized with  8 coefficients,  rinner =    0.800   0.800   0.800


     PseudoPot. # 2 for N  read from file:
     ./N.pz-van_ak.UPF
     MD5 check sum: 6092c7bba5830f51dd79c833739b857d
     Pseudo is Ultrasoft, Zval =  5.0
     Generated by new atomic code, or converted to UPF format
     Using radial grid of  729 points,  4 beta functions with: 
                l(1) =   0
                l(2) =   0
                l(3) =   1
                l(4) =   1
     Q(r) pseudized with  8 coefficients,  rinner =    0.800   0.800   0.800


     atomic species   valence    mass     pseudopotential
        C              4.00    12.01070     C ( 1.00)
        N              5.00    14.00670     N ( 1.00)

      6 Sym. Ops. (no inversion) found



   Cartesian axes

     site n.     atom                  positions (alat units)
         1           C   tau(   1) = (   0.2500000   0.7500000   0.2500000  )
         2           C   tau(   2) = (   0.0000000   0.0000000   0.5000000  )
         3           C   tau(   3) = (   0.5000000   0.0000000   0.0000000  )
         4           C   tau(   4) = (   0.0000000   0.5000000   0.0000000  )
         5           C   tau(   5) = (   0.7500000   0.2500000   0.2500000  )
         6           C   tau(   6) = (   0.2500000   0.2500000   0.7500000  )
         7           N   tau(   7) = (   0.7500000   0.7500000   0.7500000  )

     number of k points=    44  gaussian smearing, width (Ry)=  0.0100
                       cart. coord. in units 2pi/alat
        k(    1) = (   0.0714286   0.0714286   0.0714286), wk =   0.0116618
        k(    2) = (   0.0714286   0.0714286   0.2142857), wk =   0.0349854
        k(    3) = (   0.0714286   0.0714286   0.3571429), wk =   0.0349854
        k(    4) = (   0.0714286   0.0714286  -0.5000000), wk =   0.0349854
        k(    5) = (   0.0714286   0.2142857   0.2142857), wk =   0.0349854
        k(    6) = (   0.0714286   0.2142857   0.3571429), wk =   0.0699708
        k(    7) = (   0.0714286   0.2142857  -0.5000000), wk =   0.0699708
        k(    8) = (   0.0714286   0.3571429   0.3571429), wk =   0.0349854
        k(    9) = (   0.0714286   0.3571429  -0.5000000), wk =   0.0699708
        k(   10) = (   0.0714286  -0.5000000  -0.5000000), wk =   0.0349854
        k(   11) = (   0.2142857   0.2142857   0.2142857), wk =   0.0116618
        k(   12) = (   0.2142857   0.2142857   0.3571429), wk =   0.0349854
        k(   13) = (   0.2142857   0.2142857  -0.5000000), wk =   0.0349854
        k(   14) = (   0.2142857   0.3571429   0.3571429), wk =   0.0349854
        k(   15) = (   0.2142857   0.3571429  -0.5000000), wk =   0.0699708
        k(   16) = (   0.2142857  -0.5000000  -0.5000000), wk =   0.0349854
        k(   17) = (   0.3571429   0.3571429   0.3571429), wk =   0.0116618
        k(   18) = (   0.3571429   0.3571429  -0.5000000), wk =   0.0349854
        k(   19) = (   0.3571429  -0.5000000  -0.5000000), wk =   0.0349854
        k(   20) = (  -0.5000000  -0.5000000  -0.5000000), wk =   0.0058309
        k(   21) = (   0.0714286  -0.0714286   0.0714286), wk =   0.0349854
        k(   22) = (   0.0714286  -0.0714286   0.2142857), wk =   0.0699708
        k(   23) = (  -0.2142857   0.0714286   0.0714286), wk =   0.0349854
        k(   24) = (   0.0714286  -0.0714286   0.3571429), wk =   0.0699708
        k(   25) = (  -0.3571429   0.0714286   0.0714286), wk =   0.0349854
        k(   26) = (   0.0714286  -0.0714286  -0.5000000), wk =   0.0349854
        k(   27) = (   0.2142857  -0.0714286   0.2142857), wk =   0.0349854
        k(   28) = (  -0.2142857   0.0714286   0.2142857), wk =   0.0699708
        k(   29) = (   0.2142857  -0.0714286   0.3571429), wk =   0.0699708
        k(   30) = (  -0.2142857   0.0714286   0.3571429), wk =   0.0699708
        k(   31) = (  -0.3571429   0.2142857   0.0714286), wk =   0.0699708
        k(   32) = (   0.2142857  -0.0714286  -0.5000000), wk =   0.0699708
        k(   33) = (   0.3571429  -0.0714286   0.3571429), wk =   0.0349854
        k(   34) = (  -0.3571429   0.0714286   0.3571429), wk =   0.0699708
        k(   35) = (   0.3571429  -0.0714286  -0.5000000), wk =   0.0699708
        k(   36) = (   0.2142857  -0.2142857   0.2142857), wk =   0.0349854
        k(   37) = (   0.2142857  -0.2142857   0.3571429), wk =   0.0699708
        k(   38) = (  -0.3571429   0.2142857   0.2142857), wk =   0.0349854
        k(   39) = (   0.2142857  -0.2142857  -0.5000000), wk =   0.0349854
        k(   40) = (   0.3571429  -0.2142857   0.3571429), wk =   0.0349854
        k(   41) = (  -0.3571429   0.2142857   0.3571429), wk =   0.0699708
        k(   42) = (   0.3571429  -0.2142857  -0.5000000), wk =   0.0699708
        k(   43) = (   0.3571429  -0.3571429   0.3571429), wk =   0.0349854
        k(   44) = (   0.3571429  -0.3571429  -0.5000000), wk =   0.0349854

     Dense  grid:     9459 G-vectors     FFT dimensions: (  27,  27,  27)

     Smooth grid:     6859 G-vectors     FFT dimensions: (  24,  24,  24)

     Estimated max dynamical RAM per process >      27.00 MB

     Initial potential from superposition of free atoms

     starting charge   28.99979, renormalised to   29.00000
     Starting wfcs are   28 randomized atomic wfcs

     total cpu time spent up to now is        0.9 secs

     Self-consistent Calculation

     iteration #  1     ecut=    30.00 Ry     beta= 0.70
     Davidson diagonalization with overlap
     ethr =  1.00E-02,  avg # of iterations =  2.2

     total cpu time spent up to now is        2.6 secs

     total energy              =     -87.98175224 Ry
     Harris-Foulkes estimate   =     -88.14516740 Ry
     estimated scf accuracy    <       0.31394856 Ry

     iteration #  2     ecut=    30.00 Ry     beta= 0.70
     Davidson diagonalization with overlap
     ethr =  1.08E-03,  avg # of iterations =  2.0

     total cpu time spent up to now is        3.9 secs

     total energy              =     -88.00864501 Ry
     Harris-Foulkes estimate   =     -88.02446309 Ry
     estimated scf accuracy    <       0.02418505 Ry

     iteration #  3     ecut=    30.00 Ry     beta= 0.70
     Davidson diagonalization with overlap
     ethr =  8.34E-05,  avg # of iterations =  4.5

     total cpu time spent up to now is        6.1 secs

     total energy              =     -88.01114578 Ry
     Harris-Foulkes estimate   =     -88.03122711 Ry
     estimated scf accuracy    <       0.05003098 Ry

     iteration #  4     ecut=    30.00 Ry     beta= 0.70
     Davidson diagonalization with overlap
     ethr =  8.34E-05,  avg # of iterations =  3.0

     total cpu time spent up to now is        7.7 secs

     total energy              =     -88.01965232 Ry
     Harris-Foulkes estimate   =     -88.01979897 Ry
     estimated scf accuracy    <       0.00034053 Ry

     iteration #  5     ecut=    30.00 Ry     beta= 0.70
     Davidson diagonalization with overlap
     ethr =  1.17E-06,  avg # of iterations =  4.8

     total cpu time spent up to now is       10.2 secs

     total energy              =     -88.01977867 Ry
     Harris-Foulkes estimate   =     -88.01985108 Ry
     estimated scf accuracy    <       0.00015411 Ry

     iteration #  6     ecut=    30.00 Ry     beta= 0.70
     Davidson diagonalization with overlap
     ethr =  5.31E-07,  avg # of iterations =  2.0

     total cpu time spent up to now is       11.8 secs

     total energy              =     -88.01980618 Ry
     Harris-Foulkes estimate   =     -88.01980679 Ry
     estimated scf accuracy    <       0.00000205 Ry

     iteration #  7     ecut=    30.00 Ry     beta= 0.70
     Davidson diagonalization with overlap
     ethr =  7.08E-09,  avg # of iterations =  2.5

     total cpu time spent up to now is       13.5 secs

     total energy              =     -88.01980678 Ry
     Harris-Foulkes estimate   =     -88.01980687 Ry
     estimated scf accuracy    <       0.00000015 Ry

     iteration #  8     ecut=    30.00 Ry     beta= 0.70
     Davidson diagonalization with overlap
     ethr =  5.19E-10,  avg # of iterations =  2.0

     total cpu time spent up to now is       15.2 secs

     End of self-consistent calculation

          k = 0.0714 0.0714 0.0714 (   844 PWs)   bands (ev):

   -10.2094  -3.9106  -2.6155  -2.6155  -0.2320  -0.2320   3.8230   3.8230
     4.6762   4.8266   6.2147   6.6997   6.6997  11.8517  13.3258  13.3258
    14.3762  16.1305  16.1305

          k = 0.0714 0.0714 0.2143 (   844 PWs)   bands (ev):

    -9.9013  -4.8350  -3.0138  -2.3908  -0.1134   1.0985   3.2122   3.6965
     4.6578   5.3983   5.6401   6.3407   6.5075  10.8854  12.7040  12.9652
    15.1231  16.5175  17.0226

          k = 0.0714 0.0714 0.3571 (   848 PWs)   bands (ev):

    -9.3491  -6.2073  -2.7275  -2.0511   0.0227   1.9681   2.5829   3.5137
     4.3190   4.6478   6.0358   6.1616   7.2416   9.8177  12.0079  12.0118
    15.7378  17.2737  18.0994

          k = 0.0714 0.0714-0.5000 (   842 PWs)   bands (ev):

    -8.9312  -6.9516  -2.4745  -1.8717   0.0824   2.1757   2.3360   3.2858
     4.0355   4.3511   6.0596   6.2010   8.4966   9.1494  11.1684  11.7145
    15.8727  17.2363  19.8096

          k = 0.0714 0.2143 0.2143 (   845 PWs)   bands (ev):

    -9.6033  -4.6699  -4.2193  -2.4073   0.3563   1.7054   2.6219   3.9629
     4.6359   5.0189   5.6103   6.6009   6.6194   9.7965  12.1982  13.1669
    15.7048  17.0213  17.0733

          k = 0.0714 0.2143 0.3571 (   854 PWs)   bands (ev):

    -9.0668  -5.8903  -3.9622  -2.1785   0.2289   1.8555   2.4484   3.7940
     4.6068   5.0624   5.5671   6.3343   7.6823   8.8123  11.5757  12.6592
    16.5570  17.5619  18.4488

          k = 0.0714 0.2143-0.5000 (   842 PWs)   bands (ev):

    -8.6493  -6.6827  -3.5787  -2.1148   0.1846   1.5965   2.5620   3.3555
     4.5926   5.1992   5.6628   6.2431   8.0444   9.0592  11.3016  11.8860
    16.8143  18.1450  19.2669

          k = 0.0714 0.3571 0.3571 (   844 PWs)   bands (ev):

    -8.5612  -5.4909  -5.2352  -2.3634   0.1004   2.0331   2.5095   3.4418
     4.5997   4.6253   6.3609   6.8499   7.6438   8.4938  11.2470  12.8213
    17.0794  18.5867  18.7949

          k = 0.0714 0.3571-0.5000 (   844 PWs)   bands (ev):

    -8.1659  -6.2346  -4.8620  -2.6388   0.3673   1.7633   2.5821   3.2340
     4.1514   4.8585   6.4966   7.2460   7.3236   8.9371  11.4748  12.2939
    17.8868  18.4150  19.4490

          k = 0.0714-0.5000-0.5000 (   856 PWs)   bands (ev):

    -7.8361  -5.8984  -5.5789  -2.9939   0.9977   1.7914   1.9682   3.1246
     4.2798   4.5392   6.9068   6.9872   7.8106   8.8827  11.5031  12.5365
    17.8055  18.8419  19.4586

          k = 0.2143 0.2143 0.2143 (   844 PWs)   bands (ev):

    -9.3176  -4.3560  -3.9708  -3.9708   1.0416   1.0416   3.2972   3.7061
     3.7061   5.6055   6.5393   6.5393   6.7856   8.6232  12.8278  12.8278
    15.9483  17.0717  17.0717

          k = 0.2143 0.2143 0.3571 (   853 PWs)   bands (ev):

    -8.8010  -5.5596  -3.6932  -3.5796   0.1726   0.9181   2.6654   3.7806
     4.9978   5.8615   6.2293   6.4423   7.0845   8.4691  12.4416  12.5659
    16.6476  17.6115  18.0840

          k = 0.2143 0.2143-0.5000 (   852 PWs)   bands (ev):

    -8.3888  -6.4037  -3.3573  -3.1750  -0.2285   0.4881   2.6245   3.8673
     5.2254   5.6513   6.2037   6.6381   6.7415   9.5955  11.7094  12.2530
    16.9263  18.4411  19.3960

          k = 0.2143 0.3571 0.3571 (   846 PWs)   bands (ev):

    -8.3229  -5.0859  -4.9762  -3.2701  -0.5015   0.6815   1.5699   4.6511
     5.7420   5.9618   6.2116   6.5478   6.8776   9.1511  12.2854  12.8546
    17.0057  18.1838  18.2332

          k = 0.2143 0.3571-0.5000 (   854 PWs)   bands (ev):

    -7.9409  -5.9371  -4.5505  -3.0240  -0.7362   0.2929   1.3292   4.8598
     5.5051   5.6811   6.2856   6.6121   7.4080  10.0129  12.0662  12.5614
    17.5227  18.2957  19.2865

          k = 0.2143-0.5000-0.5000 (   856 PWs)   bands (ev):

    -7.6242  -5.6028  -5.3173  -2.9715  -0.5182   0.2730   0.4834   4.8680
     5.2858   5.9616   5.9850   7.1261   7.8594  10.3860  11.9388  12.7450
    17.7043  18.7863  18.9435

          k = 0.3571 0.3571 0.3571 (   850 PWs)   bands (ev):

    -7.8989  -4.5613  -4.5613  -4.3853  -0.5300  -0.5300   0.2893   4.9488
     6.3214   6.3214   6.8306   6.8306   7.0989   9.8868  12.9240  12.9240
    16.9124  18.2605  18.2605

          k = 0.3571 0.3571-0.5000 (   866 PWs)   bands (ev):

    -7.5647  -5.4380  -4.3179  -3.6397  -1.0469  -0.8480  -0.0553   4.5044
     6.4319   6.4460   6.6874   7.4957   7.5117  10.6929  12.6884  12.9500
    17.2139  18.2467  18.9078

          k = 0.3571-0.5000-0.5000 (   876 PWs)   bands (ev):

    -7.3080  -5.0721  -4.8953  -3.2594  -1.3692  -0.9696  -0.8021   4.0625
     6.3433   6.7707   7.3727   7.6116   7.9222  11.1663  12.7994  13.0620
    17.2429  18.4747  18.5280

          k =-0.5000-0.5000-0.5000 (   840 PWs)   bands (ev):

    -7.1394  -4.6434  -4.6434  -3.6879  -1.6338  -1.3532  -1.3532   3.6050
     6.9043   6.9043   7.9396   7.9396   7.9855  11.4015  13.2329  13.2329
    16.9028  18.3650  18.3650

          k = 0.0714-0.0714 0.0714 (   844 PWs)   bands (ev):

   -10.2044  -4.2246  -2.6215  -1.6939  -0.9036  -0.2145   3.6915   3.9884
     4.3927   4.8389   6.3535   6.7729   6.8204  12.1921  12.8917  13.3296
    14.3606  16.2448  16.3379

          k = 0.0714-0.0714 0.2143 (   844 PWs)   bands (ev):

    -9.8908  -5.0382  -3.1078  -1.2629  -0.9007   1.0120   3.0273   3.8599
     4.2510   5.1755   6.0250   6.5184   6.6905  11.3744  12.1404  12.9140
    15.0864  16.6705  17.1405

          k =-0.2143 0.0714 0.0714 (   844 PWs)   bands (ev):

    -9.8858  -5.1667  -2.4079  -2.2694  -0.0615   0.5721   3.2814   3.3163
     4.3031   5.4173   5.9256   6.5834   6.7984  11.4853  12.1857  12.6913
    14.9533  17.0985  17.2590

          k = 0.0714-0.0714 0.3571 (   848 PWs)   bands (ev):

    -9.3337  -6.2821  -2.9884  -0.9352  -0.6969   1.9719   2.3887   3.5286
     3.8944   4.8556   5.8858   6.5985   7.2772  10.3319  11.3998  12.0481
    15.7227  17.3112  18.1409

          k =-0.3571 0.0714 0.0714 (   848 PWs)   bands (ev):

    -9.3250  -6.3457  -2.3896  -2.0714   0.0875   1.8445   2.5886   2.7953
     4.1312   5.1632   5.9543   6.3184   7.4576  10.4229  11.3159  11.9965
    15.5339  17.3968  18.7863

          k = 0.0714-0.0714-0.5000 (   842 PWs)   bands (ev):

    -8.9265  -6.9553  -2.8757  -0.8266  -0.5391   1.9493   2.4416   3.5101
     3.7759   4.4162   5.6990   6.6542   8.3198   9.5018  11.0984  11.5575
    15.9669  17.2049  19.8038

          k = 0.2143-0.0714 0.2143 (   845 PWs)   bands (ev):

    -9.5866  -4.9796  -4.2226  -1.2809  -0.4704   1.7874   2.3766   3.9286
     4.2625   4.7643   6.1796   6.6532   6.8401  10.3856  11.5378  13.1604
    15.6454  17.1465  17.6008

          k =-0.2143 0.0714 0.2143 (   845 PWs)   bands (ev):

    -9.5708  -5.4112  -3.4891  -1.8622   0.2267   1.2848   2.3357   3.6340
     4.4526   4.7031   6.0145   6.8476   7.1738  10.5214  11.7524  12.6308
    15.6180  17.1108  17.8340

          k = 0.2143-0.0714 0.3571 (   854 PWs)   bands (ev):

    -9.0436  -5.9837  -4.1489  -1.3807  -0.0680   1.7392   2.2085   3.4972
     4.2901   5.1852   5.8476   6.6405   7.5048   9.6371  10.9186  12.6337
    16.5841  17.7541  18.2287

          k =-0.2143 0.0714 0.3571 (   854 PWs)   bands (ev):

    -9.0186  -6.1809  -3.8072  -1.6137   0.1849   1.4961   2.1675   3.7376
     4.3066   4.5381   6.0438   6.7595   7.6912   9.7806  11.2946  12.0231
    16.5769  17.9099  18.3878

          k =-0.3571 0.2143 0.0714 (   854 PWs)   bands (ev):

    -9.0162  -6.2259  -3.5524  -2.0324   0.3750   1.6086   2.1346   3.4429
     4.5109   4.8650   5.7025   6.7855   7.7108   9.7375  11.2677  12.1026
    16.3248  18.2030  18.5463

          k = 0.2143-0.0714-0.5000 (   842 PWs)   bands (ev):

    -8.6350  -6.6956  -3.8517  -1.5472   0.2132   1.3610   2.2776   3.3793
     4.3501   5.1582   5.9263   6.4254   7.9414   9.5427  10.9908  11.7900
    17.0752  18.0290  19.1725

          k = 0.3571-0.0714 0.3571 (   844 PWs)   bands (ev):

    -8.5304  -5.6639  -5.2366  -2.0589   0.4858   1.8404   2.1067   2.8445
     4.3915   5.2961   6.4061   6.9654   7.3998   9.2932  10.7034  12.8027
    17.0306  18.7841  19.3310

          k =-0.3571 0.0714 0.3571 (   844 PWs)   bands (ev):

    -8.4864  -6.1879  -4.5479  -2.2880   0.4265   1.6812   2.1527   3.4330
     4.1527   5.1524   5.7994   7.2744   7.6292   9.3017  11.5004  11.9575
    17.4547  18.4783  19.1543

          k = 0.3571-0.0714-0.5000 (   844 PWs)   bands (ev):

    -8.1452  -6.2618  -4.9498  -2.5042   0.8885   1.3939   2.3965   2.7627
     4.3243   5.0334   6.6125   7.1069   7.4365   9.1590  11.2825  12.2758
    17.9584  18.5470  19.3108

          k = 0.2143-0.2143 0.2143 (   844 PWs)   bands (ev):

    -9.2658  -5.4013  -3.9800  -2.2230   0.3665   1.1728   2.7070   3.3693
     3.5990   5.1112   6.7518   7.0844   7.2602   9.6290  11.8081  12.7935
    15.8133  17.2271  18.0459

          k = 0.2143-0.2143 0.3571 (   853 PWs)   bands (ev):

    -8.7293  -5.9236  -4.2968  -1.9251  -0.2623   0.9617   2.3874   2.9877
     4.7038   5.4576   6.7203   6.9470   7.2067   9.7637  11.3899  12.4820
    16.7286  17.8331  18.6411

          k =-0.3571 0.2143 0.2143 (   853 PWs)   bands (ev):

    -8.7212  -6.0850  -3.5907  -2.7907   0.2449   0.4782   2.5946   3.7301
     4.1451   5.3817   6.6456   6.9626   7.1867   9.7462  11.5446  12.4036
    16.3891  18.3169  18.6914

          k = 0.2143-0.2143-0.5000 (   852 PWs)   bands (ev):

    -8.3456  -6.4486  -4.2338  -1.6509  -0.6083   0.6063   2.3319   3.0287
     5.2208   5.9553   6.1492   6.7916   7.0929  10.5149  10.9282  12.0406
    17.5107  18.2761  18.9024

          k = 0.3571-0.2143 0.3571 (   846 PWs)   bands (ev):

    -8.2294  -5.6874  -4.9802  -2.1679  -0.6258   0.7395   1.1111   3.7011
     5.3257   6.0044   6.5357   6.9282   7.3128  10.4321  11.0880  12.8081
    17.0314  18.4536  19.0903

          k =-0.3571 0.2143 0.3571 (   846 PWs)   bands (ev):

    -8.2154  -5.9769  -4.4302  -2.6028  -0.5328   0.3846   1.5217   4.1230
     5.2959   5.8054   6.0283   6.9188   7.6016  10.2163  11.7137  12.4116
    17.1682  18.3990  18.8635

          k = 0.3571-0.2143-0.5000 (   854 PWs)   bands (ev):

    -7.8802  -6.0284  -4.8578  -2.4277  -0.5998   0.2167   1.0360   4.1005
     5.5625   5.8037   6.4051   7.0305   7.4269  10.6553  11.4432  12.4962
    17.9250  18.3659  18.9425

          k = 0.3571-0.3571 0.3571 (   850 PWs)   bands (ev):

    -7.7676  -5.6904  -4.5662  -2.8342  -0.9754  -0.5015   0.1876   4.9363
     5.2926   6.0474   6.6250   7.6073   7.7191  10.9345  11.9275  12.8824
    17.1939  18.6190  18.6285

          k = 0.3571-0.3571-0.5000 (   866 PWs)   bands (ev):

    -7.4876  -5.6046  -4.7746  -2.6854  -1.3679  -0.6804  -0.3033   4.5104
     5.5429   6.4771   7.3877   7.4851   7.6575  11.2539  12.1798  12.8674
    17.6451  18.2048  18.8528

     the Fermi energy is    11.5424 ev

!    total energy              =     -88.01980681 Ry
     Harris-Foulkes estimate   =     -88.01980682 Ry
     estimated scf accuracy    <          7.1E-09 Ry

     The total energy is the sum of the following terms:

     one-electron contribution =      17.03896123 Ry
     hartree contribution      =      10.51733338 Ry
     xc contribution           =     -25.54525041 Ry
     ewald contribution        =     -90.02943356 Ry
     smearing contrib. (-TS)   =      -0.00141746 Ry

     convergence has been achieved in   8 iterations

     Forces acting on atoms (cartesian axes, Ry/au):

     atom    1 type  1   force =    -0.06815257    0.02516292   -0.06815257
     atom    2 type  1   force =     0.00671598    0.00671598    0.04782849
     atom    3 type  1   force =     0.04782849    0.00671598    0.00671598
     atom    4 type  1   force =     0.00671598    0.04782849    0.00671598
     atom    5 type  1   force =     0.02516292   -0.06815257   -0.06815257
     atom    6 type  1   force =    -0.06815257   -0.06815257    0.02516292
     atom    7 type  2   force =     0.04988177    0.04988177    0.04988177

     Total force =     0.210632     Total SCF correction =     0.000218


     Computing stress (Cartesian axis) and pressure

          total   stress  (Ry/bohr**3)                   (kbar)     P= -264.65
  -0.00179904   0.00090922   0.00090922       -264.65    133.75    133.75
   0.00090922  -0.00179904   0.00090922        133.75   -264.65    133.75
   0.00090922   0.00090922  -0.00179904        133.75    133.75   -264.65


     Writing output data file NV.save/

     init_run     :      0.78s CPU      0.78s WALL (       1 calls)
     electrons    :     14.19s CPU     14.37s WALL (       1 calls)
     forces       :      0.36s CPU      0.37s WALL (       1 calls)
     stress       :      0.55s CPU      0.55s WALL (       1 calls)

     Called by init_run:
     wfcinit      :      0.63s CPU      0.63s WALL (       1 calls)
     potinit      :      0.01s CPU      0.01s WALL (       1 calls)
     hinit0       :      0.12s CPU      0.12s WALL (       1 calls)

     Called by electrons:
     c_bands      :     12.64s CPU     12.79s WALL (       8 calls)
     sum_band     :      1.43s CPU      1.45s WALL (       8 calls)
     v_of_rho     :      0.01s CPU      0.01s WALL (       9 calls)
     newd         :      0.10s CPU      0.11s WALL (       9 calls)
     mix_rho      :      0.01s CPU      0.01s WALL (       8 calls)

     Called by c_bands:
     init_us_2    :      0.23s CPU      0.23s WALL (     836 calls)
     cegterg      :     12.17s CPU     12.31s WALL (     352 calls)

     Called by sum_band:
     sum_band:bec :      0.01s CPU      0.01s WALL (     352 calls)
     addusdens    :      0.06s CPU      0.07s WALL (       8 calls)

     Called by *egterg:
     h_psi        :      7.02s CPU      7.10s WALL (    1414 calls)
     s_psi        :      1.37s CPU      1.38s WALL (    1414 calls)
     g_psi        :      0.06s CPU      0.06s WALL (    1018 calls)
     cdiaghg      :      1.06s CPU      1.07s WALL (    1370 calls)

     Called by h_psi:
     h_psi:pot    :      6.98s CPU      7.07s WALL (    1414 calls)
     h_psi:calbec :      1.39s CPU      1.41s WALL (    1414 calls)
     vloc_psi     :      4.21s CPU      4.26s WALL (    1414 calls)
     add_vuspsi   :      1.38s CPU      1.39s WALL (    1414 calls)

     General routines
     calbec       :      2.20s CPU      2.23s WALL (    1986 calls)
     fft          :      0.02s CPU      0.02s WALL (      57 calls)
     ffts         :      0.01s CPU      0.01s WALL (      17 calls)
     fftw         :      4.14s CPU      4.20s WALL (   46742 calls)
     interpolate  :      0.01s CPU      0.01s WALL (       9 calls)

     Parallel routines

     PWSCF        :     15.98s CPU     16.19s WALL


   This run was terminated on:   4: 1:44  14Dec2022            

=------------------------------------------------------------------------------=
   JOB DONE.
=------------------------------------------------------------------------------=
