
     Program PWSCF v.6.4.1 starts on 14Dec2022 at  4:13:13 

     This program is part of the open-source Quantum ESPRESSO suite
     for quantum simulation of materials; please cite
         "P. Giannozzi et al., J. Phys.:Condens. Matter 21 395502 (2009);
         "P. Giannozzi et al., J. Phys.:Condens. Matter 29 465901 (2017);
          URL http://www.quantum-espresso.org", 
     in publications or presentations arising from this work. More details at
     http://www.quantum-espresso.org/quote

     Parallel version (MPI), running on     1 processors

     MPI processes distributed on     1 nodes
     Waiting for input...
     Reading input from standard input

     Current dimensions of program PWSCF are:
     Max number of different atomic species (ntypx) = 10
     Max number of k-points (npk) =  40000
     Max angular momentum in pseudopotentials (lmaxx) =  3

     Subspace diagonalization in iterative solution of the eigenvalue problem:
     a serial algorithm will be used


     G-vector sticks info
     --------------------
     sticks:   dense  smooth     PW     G-vecs:    dense   smooth      PW
     Sum         545     437    145                 9459     6859    1309



     bravais-lattice index     =            1
     lattice parameter (alat)  =       6.7407  a.u.
     unit-cell volume          =     306.2710 (a.u.)^3
     number of atoms/cell      =            7
     number of atomic types    =            2
     number of electrons       =        29.00
     number of Kohn-Sham states=           19
     kinetic-energy cutoff     =      30.0000  Ry
     charge density cutoff     =     150.0000  Ry
     convergence threshold     =      1.0E-08
     mixing beta               =       0.7000
     number of iterations used =            8  plain     mixing
     Exchange-correlation      = SLA PZ NOGX NOGC ( 1  1  0  0 0 0)
     nstep                     =           50


     celldm(1)=   6.740653  celldm(2)=   0.000000  celldm(3)=   0.000000
     celldm(4)=   0.000000  celldm(5)=   0.000000  celldm(6)=   0.000000

     crystal axes: (cart. coord. in units of alat)
               a(1) = (   1.000000   0.000000   0.000000 )  
               a(2) = (   0.000000   1.000000   0.000000 )  
               a(3) = (   0.000000   0.000000   1.000000 )  

     reciprocal axes: (cart. coord. in units 2 pi/alat)
               b(1) = (  1.000000  0.000000  0.000000 )  
               b(2) = (  0.000000  1.000000  0.000000 )  
               b(3) = (  0.000000  0.000000  1.000000 )  


     PseudoPot. # 1 for C  read from file:
     ./C.pz-van_ak.UPF
     MD5 check sum: d40b4001ce20bbb1180eafeb54b8064c
     Pseudo is Ultrasoft, Zval =  4.0
     Generated by new atomic code, or converted to UPF format
     Using radial grid of  721 points,  4 beta functions with: 
                l(1) =   0
                l(2) =   0
                l(3) =   1
                l(4) =   1
     Q(r) pseudized with  8 coefficients,  rinner =    0.800   0.800   0.800


     PseudoPot. # 2 for N  read from file:
     ./N.pz-van_ak.UPF
     MD5 check sum: 6092c7bba5830f51dd79c833739b857d
     Pseudo is Ultrasoft, Zval =  5.0
     Generated by new atomic code, or converted to UPF format
     Using radial grid of  729 points,  4 beta functions with: 
                l(1) =   0
                l(2) =   0
                l(3) =   1
                l(4) =   1
     Q(r) pseudized with  8 coefficients,  rinner =    0.800   0.800   0.800


     atomic species   valence    mass     pseudopotential
        C              4.00    12.01070     C ( 1.00)
        N              5.00    14.00670     N ( 1.00)

      6 Sym. Ops. (no inversion) found



   Cartesian axes

     site n.     atom                  positions (alat units)
         1           C   tau(   1) = (   0.2500000   0.7500000   0.2500000  )
         2           C   tau(   2) = (   0.0000000   0.0000000   0.5000000  )
         3           C   tau(   3) = (   0.5000000   0.0000000   0.0000000  )
         4           C   tau(   4) = (   0.0000000   0.5000000   0.0000000  )
         5           C   tau(   5) = (   0.7500000   0.2500000   0.2500000  )
         6           C   tau(   6) = (   0.2500000   0.2500000   0.7500000  )
         7           N   tau(   7) = (   0.7500000   0.7500000   0.7500000  )

     number of k points=    44  gaussian smearing, width (Ry)=  0.0100
                       cart. coord. in units 2pi/alat
        k(    1) = (   0.0714286   0.0714286   0.0714286), wk =   0.0116618
        k(    2) = (   0.0714286   0.0714286   0.2142857), wk =   0.0349854
        k(    3) = (   0.0714286   0.0714286   0.3571429), wk =   0.0349854
        k(    4) = (   0.0714286   0.0714286  -0.5000000), wk =   0.0349854
        k(    5) = (   0.0714286   0.2142857   0.2142857), wk =   0.0349854
        k(    6) = (   0.0714286   0.2142857   0.3571429), wk =   0.0699708
        k(    7) = (   0.0714286   0.2142857  -0.5000000), wk =   0.0699708
        k(    8) = (   0.0714286   0.3571429   0.3571429), wk =   0.0349854
        k(    9) = (   0.0714286   0.3571429  -0.5000000), wk =   0.0699708
        k(   10) = (   0.0714286  -0.5000000  -0.5000000), wk =   0.0349854
        k(   11) = (   0.2142857   0.2142857   0.2142857), wk =   0.0116618
        k(   12) = (   0.2142857   0.2142857   0.3571429), wk =   0.0349854
        k(   13) = (   0.2142857   0.2142857  -0.5000000), wk =   0.0349854
        k(   14) = (   0.2142857   0.3571429   0.3571429), wk =   0.0349854
        k(   15) = (   0.2142857   0.3571429  -0.5000000), wk =   0.0699708
        k(   16) = (   0.2142857  -0.5000000  -0.5000000), wk =   0.0349854
        k(   17) = (   0.3571429   0.3571429   0.3571429), wk =   0.0116618
        k(   18) = (   0.3571429   0.3571429  -0.5000000), wk =   0.0349854
        k(   19) = (   0.3571429  -0.5000000  -0.5000000), wk =   0.0349854
        k(   20) = (  -0.5000000  -0.5000000  -0.5000000), wk =   0.0058309
        k(   21) = (   0.0714286  -0.0714286   0.0714286), wk =   0.0349854
        k(   22) = (   0.0714286  -0.0714286   0.2142857), wk =   0.0699708
        k(   23) = (  -0.2142857   0.0714286   0.0714286), wk =   0.0349854
        k(   24) = (   0.0714286  -0.0714286   0.3571429), wk =   0.0699708
        k(   25) = (  -0.3571429   0.0714286   0.0714286), wk =   0.0349854
        k(   26) = (   0.0714286  -0.0714286  -0.5000000), wk =   0.0349854
        k(   27) = (   0.2142857  -0.0714286   0.2142857), wk =   0.0349854
        k(   28) = (  -0.2142857   0.0714286   0.2142857), wk =   0.0699708
        k(   29) = (   0.2142857  -0.0714286   0.3571429), wk =   0.0699708
        k(   30) = (  -0.2142857   0.0714286   0.3571429), wk =   0.0699708
        k(   31) = (  -0.3571429   0.2142857   0.0714286), wk =   0.0699708
        k(   32) = (   0.2142857  -0.0714286  -0.5000000), wk =   0.0699708
        k(   33) = (   0.3571429  -0.0714286   0.3571429), wk =   0.0349854
        k(   34) = (  -0.3571429   0.0714286   0.3571429), wk =   0.0699708
        k(   35) = (   0.3571429  -0.0714286  -0.5000000), wk =   0.0699708
        k(   36) = (   0.2142857  -0.2142857   0.2142857), wk =   0.0349854
        k(   37) = (   0.2142857  -0.2142857   0.3571429), wk =   0.0699708
        k(   38) = (  -0.3571429   0.2142857   0.2142857), wk =   0.0349854
        k(   39) = (   0.2142857  -0.2142857  -0.5000000), wk =   0.0349854
        k(   40) = (   0.3571429  -0.2142857   0.3571429), wk =   0.0349854
        k(   41) = (  -0.3571429   0.2142857   0.3571429), wk =   0.0699708
        k(   42) = (   0.3571429  -0.2142857  -0.5000000), wk =   0.0699708
        k(   43) = (   0.3571429  -0.3571429   0.3571429), wk =   0.0349854
        k(   44) = (   0.3571429  -0.3571429  -0.5000000), wk =   0.0349854

     Dense  grid:     9459 G-vectors     FFT dimensions: (  27,  27,  27)

     Smooth grid:     6859 G-vectors     FFT dimensions: (  24,  24,  24)

     Estimated max dynamical RAM per process >      27.00 MB

     Initial potential from superposition of free atoms

     starting charge   28.99979, renormalised to   29.00000
     Starting wfcs are   28 randomized atomic wfcs

     total cpu time spent up to now is        1.0 secs

     Self-consistent Calculation

     iteration #  1     ecut=    30.00 Ry     beta= 0.70
     Davidson diagonalization with overlap
     ethr =  1.00E-02,  avg # of iterations =  2.2

     total cpu time spent up to now is        2.8 secs

     total energy              =     -87.98175224 Ry
     Harris-Foulkes estimate   =     -88.14516740 Ry
     estimated scf accuracy    <       0.31394856 Ry

     iteration #  2     ecut=    30.00 Ry     beta= 0.70
     Davidson diagonalization with overlap
     ethr =  1.08E-03,  avg # of iterations =  2.0

     total cpu time spent up to now is        4.5 secs

     total energy              =     -88.00864501 Ry
     Harris-Foulkes estimate   =     -88.02446309 Ry
     estimated scf accuracy    <       0.02418505 Ry

     iteration #  3     ecut=    30.00 Ry     beta= 0.70
     Davidson diagonalization with overlap
     ethr =  8.34E-05,  avg # of iterations =  4.5

     total cpu time spent up to now is        6.8 secs

     total energy              =     -88.01114578 Ry
     Harris-Foulkes estimate   =     -88.03122711 Ry
     estimated scf accuracy    <       0.05003098 Ry

     iteration #  4     ecut=    30.00 Ry     beta= 0.70
     Davidson diagonalization with overlap
     ethr =  8.34E-05,  avg # of iterations =  3.0

     total cpu time spent up to now is        8.7 secs

     total energy              =     -88.01965232 Ry
     Harris-Foulkes estimate   =     -88.01979897 Ry
     estimated scf accuracy    <       0.00034053 Ry

     iteration #  5     ecut=    30.00 Ry     beta= 0.70
     Davidson diagonalization with overlap
     ethr =  1.17E-06,  avg # of iterations =  4.8

     total cpu time spent up to now is       11.0 secs

     total energy              =     -88.01977867 Ry
     Harris-Foulkes estimate   =     -88.01985108 Ry
     estimated scf accuracy    <       0.00015411 Ry

     iteration #  6     ecut=    30.00 Ry     beta= 0.70
     Davidson diagonalization with overlap
     ethr =  5.31E-07,  avg # of iterations =  2.0

     total cpu time spent up to now is       12.5 secs

     total energy              =     -88.01980618 Ry
     Harris-Foulkes estimate   =     -88.01980679 Ry
     estimated scf accuracy    <       0.00000205 Ry

     iteration #  7     ecut=    30.00 Ry     beta= 0.70
     Davidson diagonalization with overlap
     ethr =  7.08E-09,  avg # of iterations =  2.5

     total cpu time spent up to now is       15.1 secs

     total energy              =     -88.01980678 Ry
     Harris-Foulkes estimate   =     -88.01980687 Ry
     estimated scf accuracy    <       0.00000015 Ry

     iteration #  8     ecut=    30.00 Ry     beta= 0.70
     Davidson diagonalization with overlap
     ethr =  5.19E-10,  avg # of iterations =  2.0

     total cpu time spent up to now is       16.8 secs

     End of self-consistent calculation

          k = 0.0714 0.0714 0.0714 (   844 PWs)   bands (ev):

   -10.2094  -3.9106  -2.6155  -2.6155  -0.2320  -0.2320   3.8230   3.8230
     4.6762   4.8266   6.2147   6.6997   6.6997  11.8517  13.3258  13.3258
    14.3762  16.1305  16.1305

          k = 0.0714 0.0714 0.2143 (   844 PWs)   bands (ev):

    -9.9013  -4.8350  -3.0138  -2.3908  -0.1134   1.0985   3.2122   3.6965
     4.6578   5.3983   5.6401   6.3407   6.5075  10.8854  12.7040  12.9652
    15.1231  16.5175  17.0226

          k = 0.0714 0.0714 0.3571 (   848 PWs)   bands (ev):

    -9.3491  -6.2073  -2.7275  -2.0511   0.0227   1.9681   2.5829   3.5137
     4.3190   4.6478   6.0358   6.1616   7.2416   9.8177  12.0079  12.0118
    15.7378  17.2737  18.0994

          k = 0.0714 0.0714-0.5000 (   842 PWs)   bands (ev):

    -8.9312  -6.9516  -2.4745  -1.8717   0.0824   2.1757   2.3360   3.2858
     4.0355   4.3511   6.0596   6.2010   8.4966   9.1494  11.1684  11.7145
    15.8727  17.2363  19.8096

          k = 0.0714 0.2143 0.2143 (   845 PWs)   bands (ev):

    -9.6033  -4.6699  -4.2193  -2.4073   0.3563   1.7054   2.6219   3.9629
     4.6359   5.0189   5.6103   6.6009   6.6194   9.7965  12.1982  13.1669
    15.7048  17.0213  17.0733

          k = 0.0714 0.2143 0.3571 (   854 PWs)   bands (ev):

    -9.0668  -5.8903  -3.9622  -2.1785   0.2289   1.8555   2.4484   3.7940
     4.6068   5.0624   5.5671   6.3343   7.6823   8.8123  11.5757  12.6592
    16.5570  17.5619  18.4488

          k = 0.0714 0.2143-0.5000 (   842 PWs)   bands (ev):

    -8.6493  -6.6827  -3.5787  -2.1148   0.1846   1.5965   2.5620   3.3555
     4.5926   5.1992   5.6628   6.2431   8.0444   9.0592  11.3016  11.8860
    16.8143  18.1450  19.2669

          k = 0.0714 0.3571 0.3571 (   844 PWs)   bands (ev):

    -8.5612  -5.4909  -5.2352  -2.3634   0.1004   2.0331   2.5095   3.4418
     4.5997   4.6253   6.3609   6.8499   7.6438   8.4938  11.2470  12.8213
    17.0794  18.5867  18.7949

          k = 0.0714 0.3571-0.5000 (   844 PWs)   bands (ev):

    -8.1659  -6.2346  -4.8620  -2.6388   0.3673   1.7633   2.5821   3.2340
     4.1514   4.8585   6.4966   7.2460   7.3236   8.9371  11.4748  12.2939
    17.8868  18.4150  19.4490

          k = 0.0714-0.5000-0.5000 (   856 PWs)   bands (ev):

    -7.8361  -5.8984  -5.5789  -2.9939   0.9977   1.7914   1.9682   3.1246
     4.2798   4.5392   6.9068   6.9872   7.8106   8.8827  11.5031  12.5365
    17.8055  18.8419  19.4586

          k = 0.2143 0.2143 0.2143 (   844 PWs)   bands (ev):

    -9.3176  -4.3560  -3.9708  -3.9708   1.0416   1.0416   3.2972   3.7061
     3.7061   5.6055   6.5393   6.5393   6.7856   8.6232  12.8278  12.8278
    15.9483  17.0717  17.0717

          k = 0.2143 0.2143 0.3571 (   853 PWs)   bands (ev):

    -8.8010  -5.5596  -3.6932  -3.5796   0.1726   0.9181   2.6654   3.7806
     4.9978   5.8615   6.2293   6.4423   7.0845   8.4691  12.4416  12.5659
    16.6476  17.6115  18.0840

          k = 0.2143 0.2143-0.5000 (   852 PWs)   bands (ev):

    -8.3888  -6.4037  -3.3573  -3.1750  -0.2285   0.4881   2.6245   3.8673
     5.2254   5.6513   6.2037   6.6381   6.7415   9.5955  11.7094  12.2530
    16.9263  18.4411  19.3960

          k = 0.2143 0.3571 0.3571 (   846 PWs)   bands (ev):

    -8.3229  -5.0859  -4.9762  -3.2701  -0.5015   0.6815   1.5699   4.6511
     5.7420   5.9618   6.2116   6.5478   6.8776   9.1511  12.2854  12.8546
    17.0057  18.1838  18.2332

          k = 0.2143 0.3571-0.5000 (   854 PWs)   bands (ev):

    -7.9409  -5.9371  -4.5505  -3.0240  -0.7362   0.2929   1.3292   4.8598
     5.5051   5.6811   6.2856   6.6121   7.4080  10.0129  12.0662  12.5614
    17.5227  18.2957  19.2865

          k = 0.2143-0.5000-0.5000 (   856 PWs)   bands (ev):

    -7.6242  -5.6028  -5.3173  -2.9715  -0.5182   0.2730   0.4834   4.8680
     5.2858   5.9616   5.9850   7.1261   7.8594  10.3860  11.9388  12.7450
    17.7043  18.7863  18.9435

          k = 0.3571 0.3571 0.3571 (   850 PWs)   bands (ev):

    -7.8989  -4.5613  -4.5613  -4.3853  -0.5300  -0.5300   0.2893   4.9488
     6.3214   6.3214   6.8306   6.8306   7.0989   9.8868  12.9240  12.9240
    16.9124  18.2605  18.2605

          k = 0.3571 0.3571-0.5000 (   866 PWs)   bands (ev):

    -7.5647  -5.4380  -4.3179  -3.6397  -1.0469  -0.8480  -0.0553   4.5044
     6.4319   6.4460   6.6874   7.4957   7.5117  10.6929  12.6884  12.9500
    17.2139  18.2467  18.9078

          k = 0.3571-0.5000-0.5000 (   876 PWs)   bands (ev):

    -7.3080  -5.0721  -4.8953  -3.2594  -1.3692  -0.9696  -0.8021   4.0625
     6.3433   6.7707   7.3727   7.6116   7.9222  11.1663  12.7994  13.0620
    17.2429  18.4747  18.5280

          k =-0.5000-0.5000-0.5000 (   840 PWs)   bands (ev):

    -7.1394  -4.6434  -4.6434  -3.6879  -1.6338  -1.3532  -1.3532   3.6050
     6.9043   6.9043   7.9396   7.9396   7.9855  11.4015  13.2329  13.2329
    16.9028  18.3650  18.3650

          k = 0.0714-0.0714 0.0714 (   844 PWs)   bands (ev):

   -10.2044  -4.2246  -2.6215  -1.6939  -0.9036  -0.2145   3.6915   3.9884
     4.3927   4.8389   6.3535   6.7729   6.8204  12.1921  12.8917  13.3296
    14.3606  16.2448  16.3379

          k = 0.0714-0.0714 0.2143 (   844 PWs)   bands (ev):

    -9.8908  -5.0382  -3.1078  -1.2629  -0.9007   1.0120   3.0273   3.8599
     4.2510   5.1755   6.0250   6.5184   6.6905  11.3744  12.1404  12.9140
    15.0864  16.6705  17.1405

          k =-0.2143 0.0714 0.0714 (   844 PWs)   bands (ev):

    -9.8858  -5.1667  -2.4079  -2.2694  -0.0615   0.5721   3.2814   3.3163
     4.3031   5.4173   5.9256   6.5834   6.7984  11.4853  12.1857  12.6913
    14.9533  17.0985  17.2590

          k = 0.0714-0.0714 0.3571 (   848 PWs)   bands (ev):

    -9.3337  -6.2821  -2.9884  -0.9352  -0.6969   1.9719   2.3887   3.5286
     3.8944   4.8556   5.8858   6.5985   7.2772  10.3319  11.3998  12.0481
    15.7227  17.3112  18.1409

          k =-0.3571 0.0714 0.0714 (   848 PWs)   bands (ev):

    -9.3250  -6.3457  -2.3896  -2.0714   0.0875   1.8445   2.5886   2.7953
     4.1312   5.1632   5.9543   6.3184   7.4576  10.4229  11.3159  11.9965
    15.5339  17.3968  18.7863

          k = 0.0714-0.0714-0.5000 (   842 PWs)   bands (ev):

    -8.9265  -6.9553  -2.8757  -0.8266  -0.5391   1.9493   2.4416   3.5101
     3.7759   4.4162   5.6990   6.6542   8.3198   9.5018  11.0984  11.5575
    15.9669  17.2049  19.8038

          k = 0.2143-0.0714 0.2143 (   845 PWs)   bands (ev):

    -9.5866  -4.9796  -4.2226  -1.2809  -0.4704   1.7874   2.3766   3.9286
     4.2625   4.7643   6.1796   6.6532   6.8401  10.3856  11.5378  13.1604
    15.6454  17.1465  17.6008

          k =-0.2143 0.0714 0.2143 (   845 PWs)   bands (ev):

    -9.5708  -5.4112  -3.4891  -1.8622   0.2267   1.2848   2.3357   3.6340
     4.4526   4.7031   6.0145   6.8476   7.1738  10.5214  11.7524  12.6308
    15.6180  17.1108  17.8340

          k = 0.2143-0.0714 0.3571 (   854 PWs)   bands (ev):

    -9.0436  -5.9837  -4.1489  -1.3807  -0.0680   1.7392   2.2085   3.4972
     4.2901   5.1852   5.8476   6.6405   7.5048   9.6371  10.9186  12.6337
    16.5841  17.7541  18.2287

          k =-0.2143 0.0714 0.3571 (   854 PWs)   bands (ev):

    -9.0186  -6.1809  -3.8072  -1.6137   0.1849   1.4961   2.1675   3.7376
     4.3066   4.5381   6.0438   6.7595   7.6912   9.7806  11.2946  12.0231
    16.5769  17.9099  18.3878

          k =-0.3571 0.2143 0.0714 (   854 PWs)   bands (ev):

    -9.0162  -6.2259  -3.5524  -2.0324   0.3750   1.6086   2.1346   3.4429
     4.5109   4.8650   5.7025   6.7855   7.7108   9.7375  11.2677  12.1026
    16.3248  18.2030  18.5463

          k = 0.2143-0.0714-0.5000 (   842 PWs)   bands (ev):

    -8.6350  -6.6956  -3.8517  -1.5472   0.2132   1.3610   2.2776   3.3793
     4.3501   5.1582   5.9263   6.4254   7.9414   9.5427  10.9908  11.7900
    17.0752  18.0290  19.1725

          k = 0.3571-0.0714 0.3571 (   844 PWs)   bands (ev):

    -8.5304  -5.6639  -5.2366  -2.0589   0.4858   1.8404   2.1067   2.8445
     4.3915   5.2961   6.4061   6.9654   7.3998   9.2932  10.7034  12.8027
    17.0306  18.7841  19.3310

          k =-0.3571 0.0714 0.3571 (   844 PWs)   bands (ev):

    -8.4864  -6.1879  -4.5479  -2.2880   0.4265   1.6812   2.1527   3.4330
     4.1527   5.1524   5.7994   7.2744   7.6292   9.3017  11.5004  11.9575
    17.4547  18.4783  19.1543

          k = 0.3571-0.0714-0.5000 (   844 PWs)   bands (ev):

    -8.1452  -6.2618  -4.9498  -2.5042   0.8885   1.3939   2.3965   2.7627
     4.3243   5.0334   6.6125   7.1069   7.4365   9.1590  11.2825  12.2758
    17.9584  18.5470  19.3108

          k = 0.2143-0.2143 0.2143 (   844 PWs)   bands (ev):

    -9.2658  -5.4013  -3.9800  -2.2230   0.3665   1.1728   2.7070   3.3693
     3.5990   5.1112   6.7518   7.0844   7.2602   9.6290  11.8081  12.7935
    15.8133  17.2271  18.0459

          k = 0.2143-0.2143 0.3571 (   853 PWs)   bands (ev):

    -8.7293  -5.9236  -4.2968  -1.9251  -0.2623   0.9617   2.3874   2.9877
     4.7038   5.4576   6.7203   6.9470   7.2067   9.7637  11.3899  12.4820
    16.7286  17.8331  18.6411

          k =-0.3571 0.2143 0.2143 (   853 PWs)   bands (ev):

    -8.7212  -6.0850  -3.5907  -2.7907   0.2449   0.4782   2.5946   3.7301
     4.1451   5.3817   6.6456   6.9626   7.1867   9.7462  11.5446  12.4036
    16.3891  18.3169  18.6914

          k = 0.2143-0.2143-0.5000 (   852 PWs)   bands (ev):

    -8.3456  -6.4486  -4.2338  -1.6509  -0.6083   0.6063   2.3319   3.0287
     5.2208   5.9553   6.1492   6.7916   7.0929  10.5149  10.9282  12.0406
    17.5107  18.2761  18.9024

          k = 0.3571-0.2143 0.3571 (   846 PWs)   bands (ev):

    -8.2294  -5.6874  -4.9802  -2.1679  -0.6258   0.7395   1.1111   3.7011
     5.3257   6.0044   6.5357   6.9282   7.3128  10.4321  11.0880  12.8081
    17.0314  18.4536  19.0903

          k =-0.3571 0.2143 0.3571 (   846 PWs)   bands (ev):

    -8.2154  -5.9769  -4.4302  -2.6028  -0.5328   0.3846   1.5217   4.1230
     5.2959   5.8054   6.0283   6.9188   7.6016  10.2163  11.7137  12.4116
    17.1682  18.3990  18.8635

          k = 0.3571-0.2143-0.5000 (   854 PWs)   bands (ev):

    -7.8802  -6.0284  -4.8578  -2.4277  -0.5998   0.2167   1.0360   4.1005
     5.5625   5.8037   6.4051   7.0305   7.4269  10.6553  11.4432  12.4962
    17.9250  18.3659  18.9425

          k = 0.3571-0.3571 0.3571 (   850 PWs)   bands (ev):

    -7.7676  -5.6904  -4.5662  -2.8342  -0.9754  -0.5015   0.1876   4.9363
     5.2926   6.0474   6.6250   7.6073   7.7191  10.9345  11.9275  12.8824
    17.1939  18.6190  18.6285

          k = 0.3571-0.3571-0.5000 (   866 PWs)   bands (ev):

    -7.4876  -5.6046  -4.7746  -2.6854  -1.3679  -0.6804  -0.3033   4.5104
     5.5429   6.4771   7.3877   7.4851   7.6575  11.2539  12.1798  12.8674
    17.6451  18.2048  18.8528

     the Fermi energy is    11.5424 ev

!    total energy              =     -88.01980681 Ry
     Harris-Foulkes estimate   =     -88.01980682 Ry
     estimated scf accuracy    <          7.1E-09 Ry

     The total energy is the sum of the following terms:

     one-electron contribution =      17.03896123 Ry
     hartree contribution      =      10.51733338 Ry
     xc contribution           =     -25.54525041 Ry
     ewald contribution        =     -90.02943356 Ry
     smearing contrib. (-TS)   =      -0.00141746 Ry

     convergence has been achieved in   8 iterations

     Forces acting on atoms (cartesian axes, Ry/au):

     atom    1 type  1   force =    -0.06815257    0.02516292   -0.06815257
     atom    2 type  1   force =     0.00671598    0.00671598    0.04782849
     atom    3 type  1   force =     0.04782849    0.00671598    0.00671598
     atom    4 type  1   force =     0.00671598    0.04782849    0.00671598
     atom    5 type  1   force =     0.02516292   -0.06815257   -0.06815257
     atom    6 type  1   force =    -0.06815257   -0.06815257    0.02516292
     atom    7 type  2   force =     0.04988177    0.04988177    0.04988177

     Total force =     0.210632     Total SCF correction =     0.000218


     Computing stress (Cartesian axis) and pressure

          total   stress  (Ry/bohr**3)                   (kbar)     P= -264.65
  -0.00179904   0.00090922   0.00090922       -264.65    133.75    133.75
   0.00090922  -0.00179904   0.00090922        133.75   -264.65    133.75
   0.00090922   0.00090922  -0.00179904        133.75    133.75   -264.65


     BFGS Geometry Optimization

     number of scf cycles    =   1
     number of bfgs steps    =   0

     energy   new            =     -88.0198068137 Ry

     new trust radius        =       0.0996128394 bohr
     new conv_thr            =       0.0000000100 Ry


ATOMIC_POSITIONS (alat)
C        0.239889323   0.753733009   0.239889323
C        0.000996340   0.000996340   0.507095527
C        0.507095527   0.000996340   0.000996340
C        0.000996340   0.507095527   0.000996340
C        0.753733009   0.239889323   0.239889323
C        0.239889323   0.239889323   0.753733009
N        0.757400139   0.757400139   0.757400139



     Writing output data file NV.save/
     NEW-OLD atomic charge density approx. for the potential

     total cpu time spent up to now is       17.7 secs

     Self-consistent Calculation

     iteration #  1     ecut=    30.00 Ry     beta= 0.70
     Davidson diagonalization with overlap
     ethr =  1.00E-06,  avg # of iterations = 11.2

     total cpu time spent up to now is       22.4 secs

     total energy              =     -88.04559660 Ry
     Harris-Foulkes estimate   =     -88.04999688 Ry
     estimated scf accuracy    <       0.00684867 Ry

     iteration #  2     ecut=    30.00 Ry     beta= 0.70
     Davidson diagonalization with overlap
     ethr =  2.36E-05,  avg # of iterations =  3.2

     total cpu time spent up to now is       24.3 secs

     total energy              =     -88.04528359 Ry
     Harris-Foulkes estimate   =     -88.05059958 Ry
     estimated scf accuracy    <       0.01208562 Ry

     iteration #  3     ecut=    30.00 Ry     beta= 0.70
     Davidson diagonalization with overlap
     ethr =  2.36E-05,  avg # of iterations =  2.5

     total cpu time spent up to now is       25.9 secs

     total energy              =     -88.04797448 Ry
     Harris-Foulkes estimate   =     -88.04817830 Ry
     estimated scf accuracy    <       0.00054847 Ry

     iteration #  4     ecut=    30.00 Ry     beta= 0.70
     Davidson diagonalization with overlap
     ethr =  1.89E-06,  avg # of iterations =  2.2

     total cpu time spent up to now is       27.6 secs

     total energy              =     -88.04806922 Ry
     Harris-Foulkes estimate   =     -88.04807636 Ry
     estimated scf accuracy    <       0.00001566 Ry

     iteration #  5     ecut=    30.00 Ry     beta= 0.70
     Davidson diagonalization with overlap
     ethr =  5.40E-08,  avg # of iterations =  2.4

     total cpu time spent up to now is       29.2 secs

     total energy              =     -88.04807342 Ry
     Harris-Foulkes estimate   =     -88.04807368 Ry
     estimated scf accuracy    <       0.00000076 Ry

     iteration #  6     ecut=    30.00 Ry     beta= 0.70
     Davidson diagonalization with overlap
     ethr =  2.63E-09,  avg # of iterations =  2.1

     total cpu time spent up to now is       31.0 secs

     total energy              =     -88.04807360 Ry
     Harris-Foulkes estimate   =     -88.04807361 Ry
     estimated scf accuracy    <       0.00000003 Ry

     iteration #  7     ecut=    30.00 Ry     beta= 0.70
     Davidson diagonalization with overlap
     ethr =  1.16E-10,  avg # of iterations =  2.0

     total cpu time spent up to now is       32.6 secs

     End of self-consistent calculation

          k = 0.0714 0.0714 0.0714 (   844 PWs)   bands (ev):

   -10.4824  -4.0681  -2.8664  -2.8664  -0.4216  -0.4216   3.5288   3.5288
     4.7119   4.8694   5.8213   6.5188   6.5188  11.7193  13.3802  13.3802
    14.5434  15.9297  15.9297

          k = 0.0714 0.0714 0.2143 (   844 PWs)   bands (ev):

   -10.1862  -5.0076  -3.2136  -2.6583  -0.2853   0.9258   2.9465   3.3544
     4.6837   5.0206   5.7033   6.1351   6.3124  10.8723  12.8431  13.0468
    15.2566  16.3450  16.9710

          k = 0.0714 0.0714 0.3571 (   848 PWs)   bands (ev):

    -9.6669  -6.3486  -2.9144  -2.3500  -0.1205   1.8606   2.3563   3.0777
     4.2848   4.3390   5.8496   5.9728   7.2455   9.8894  12.1373  12.2288
    15.7497  17.4681  18.0843

          k = 0.0714 0.0714-0.5000 (   842 PWs)   bands (ev):

    -9.2962  -7.0439  -2.6569  -2.1897  -0.0588   2.0213   2.1732   2.9096
     3.9291   4.1122   5.7212   6.0338   8.7720   9.0257  11.3219  11.9629
    15.8270  17.5743  19.7985

          k = 0.0714 0.2143 0.2143 (   845 PWs)   bands (ev):

    -9.8991  -4.8378  -4.4386  -2.6417   0.2375   1.6097   2.2902   3.5561
     4.2387   5.0473   5.5257   6.4383   6.5187   9.8973  12.3649  13.2374
    15.8442  16.8842  17.0989

          k = 0.0714 0.2143 0.3571 (   854 PWs)   bands (ev):

    -9.3930  -6.0461  -4.1823  -2.3973   0.1646   1.7042   2.1450   3.4081
     4.2807   4.8353   5.4820   6.2188   7.6642   8.9945  11.7726  12.7604
    16.6459  17.5086  18.5511

          k = 0.0714 0.2143-0.5000 (   842 PWs)   bands (ev):

    -9.0214  -6.7899  -3.8272  -2.2980   0.1028   1.4193   2.2237   3.0645
     4.4234   4.8729   5.4120   6.1617   8.2862   9.0946  11.3913  12.0733
    16.8136  18.4094  19.2435

          k = 0.0714 0.3571 0.3571 (   844 PWs)   bands (ev):

    -8.9120  -5.6684  -5.4417  -2.4781  -0.0397   1.9802   2.0769   2.9767
     4.5068   4.5140   5.8638   6.8369   7.8769   8.5887  11.4085  12.9001
    17.1935  18.4663  18.8916

          k = 0.0714 0.3571-0.5000 (   844 PWs)   bands (ev):

    -8.5569  -6.3753  -5.1002  -2.6735   0.1476   1.6162   2.1867   2.8475
     4.0524   4.7775   6.0870   7.1548   7.5825   9.0963  11.5028  12.4035
    18.0111  18.4689  19.0422

          k = 0.0714-0.5000-0.5000 (   856 PWs)   bands (ev):

    -8.2505  -6.0757  -5.7815  -2.9637   0.6300   1.4696   1.9058   2.7096
     4.0731   4.5447   6.5622   7.2657   7.6148   9.1183  11.4839  12.6258
    17.8695  18.5936  19.7173

          k = 0.2143 0.2143 0.2143 (   844 PWs)   bands (ev):

    -9.6229  -4.5124  -4.2055  -4.2055   1.0246   1.0246   2.9513   3.2367
     3.2367   5.6920   6.3043   6.3043   6.7893   8.8186  12.9273  12.9273
    16.0848  17.0972  17.0972

          k = 0.2143 0.2143 0.3571 (   853 PWs)   bands (ev):

    -9.1334  -5.7307  -3.8862  -3.8476   0.1938   0.8569   2.3200   3.3171
     4.4982   5.8443   6.0618   6.2936   7.2607   8.5463  12.5988  12.6443
    16.7708  17.6022  18.1389

          k = 0.2143 0.2143-0.5000 (   852 PWs)   bands (ev):

    -8.7645  -6.5268  -3.6516  -3.3735  -0.1897   0.3565   2.2789   3.4498
     4.9595   5.4796   5.8456   6.6108   7.0485   9.5991  11.7657  12.4386
    16.9814  18.6707  19.4629

          k = 0.2143 0.3571 0.3571 (   846 PWs)   bands (ev):

    -8.6754  -5.2786  -5.1977  -3.4891  -0.5143   0.6657   1.2226   4.1329
     5.3576   5.8289   6.3138   6.4475   6.8761   9.1736  12.4190  12.9224
    17.1580  18.1707  18.2712

          k = 0.2143 0.3571-0.5000 (   854 PWs)   bands (ev):

    -8.3289  -6.0950  -4.8060  -3.1940  -0.8142   0.1947   1.0742   4.3800
     5.3168   5.9902   6.1208   6.2780   7.2969  10.0516  12.1227  12.6682
    17.6725  18.3908  19.0835

          k = 0.2143-0.5000-0.5000 (   856 PWs)   bands (ev):

    -8.0318  -5.7947  -5.5351  -3.0468  -0.8108   0.0665   0.4637   4.4950
     5.5793   5.7206   5.8776   6.7410   7.7001  10.4842  11.9645  12.8143
    17.8266  18.5954  19.2031

          k = 0.3571 0.3571 0.3571 (   850 PWs)   bands (ev):

    -8.2619  -4.8166  -4.8166  -4.5737  -0.5072  -0.5072  -0.0583   5.3560
     5.7393   5.7393   6.5874   6.5874   7.3083   9.8808  12.9949  12.9949
    17.1025  18.2575  18.2575

          k = 0.3571 0.3571-0.5000 (   866 PWs)   bands (ev):

    -7.9517  -5.6327  -4.6015  -3.8810  -1.0068  -0.9959  -0.2285   4.9549
     5.8952   6.1077   6.4483   6.9665   7.7021  10.6793  12.7248  13.0249
    17.4111  18.3582  18.9209

          k = 0.3571-0.5000-0.5000 (   876 PWs)   bands (ev):

    -7.7018  -5.3020  -5.1468  -3.5271  -1.5619  -1.0519  -0.7796   4.5414
     5.9881   6.4771   6.8533   7.2027   8.0162  11.1465  12.8346  13.0966
    17.4618  18.4730  18.6122

          k =-0.5000-0.5000-0.5000 (   840 PWs)   bands (ev):

    -7.5231  -4.9234  -4.9234  -3.9832  -1.9007  -1.3000  -1.3000   4.1062
     6.5763   6.5763   7.3477   7.3477   8.3125  11.3462  13.2479  13.2479
    17.1494  18.5052  18.5052

          k = 0.0714-0.0714 0.0714 (   844 PWs)   bands (ev):

   -10.4776  -4.3928  -2.8713  -1.9547  -1.0869  -0.4144   3.4171   3.7181
     4.3910   4.8469   6.1372   6.4490   6.6665  12.0191  12.9666  13.3900
    14.5547  15.8763  16.0028

          k = 0.0714-0.0714 0.2143 (   844 PWs)   bands (ev):

   -10.1763  -5.2078  -3.3289  -1.5377  -1.0799   0.8030   2.8083   3.6217
     4.1622   4.9848   5.9433   6.2788   6.5423  11.3373  12.2671  13.0019
    15.2377  16.3639  17.0813

          k =-0.2143 0.0714 0.0714 (   844 PWs)   bands (ev):

   -10.1716  -5.3349  -2.6712  -2.4643  -0.2663   0.3290   3.0247   3.2004
     4.1517   5.2600   5.7424   6.4420   6.6261  11.5401  12.1438  12.8382
    15.0941  16.6993  16.9471

          k = 0.0714-0.0714 0.3571 (   848 PWs)   bands (ev):

    -9.6531  -6.4206  -3.2027  -1.2348  -0.8755   1.7910   2.2229   3.3473
     3.6685   4.5885   5.7837   6.2168   7.4006  10.3471  11.5972  12.2060
    15.7207  17.4729  18.1693

          k =-0.3571 0.0714 0.0714 (   848 PWs)   bands (ev):

    -9.6455  -6.4821  -2.5722  -2.3637  -0.1007   1.5940   2.4926   2.5504
     3.9667   4.9270   5.5937   6.1726   7.5617  10.5118  11.3495  12.2180
    15.5564  17.5610  18.7578

          k = 0.0714-0.0714-0.5000 (   842 PWs)   bands (ev):

    -9.2923  -7.0470  -3.0906  -1.1285  -0.7318   1.7960   2.3221   3.3412
     3.4792   4.1465   5.6095   6.2494   8.5437   9.4222  11.3193  11.7731
    15.8909  17.5468  19.7399

          k = 0.2143-0.0714 0.2143 (   845 PWs)   bands (ev):

    -9.8835  -5.1464  -4.4421  -1.4423  -0.7739   1.6399   2.1623   3.7453
     4.0209   4.5749   5.8961   6.6223   6.7317  10.4596  11.6824  13.2487
    15.8206  16.7605  17.4609

          k =-0.2143 0.0714 0.2143 (   845 PWs)   bands (ev):

    -9.8690  -5.5772  -3.7201  -2.0655   0.0017   1.0563   2.1530   3.4452
     4.2379   4.5288   5.8242   6.7053   7.0878  10.7200  11.7582  12.6807
    15.8067  16.8184  17.4918

          k = 0.2143-0.0714 0.3571 (   854 PWs)   bands (ev):

    -9.3723  -6.1348  -4.3661  -1.5031  -0.4125   1.5601   2.0883   3.2811
     4.1092   4.8257   5.5944   6.5155   7.5914   9.7173  11.1268  12.7473
    16.6756  17.4512  18.5267

          k =-0.2143 0.0714 0.3571 (   854 PWs)   bands (ev):

    -9.3507  -6.3247  -4.0354  -1.7896  -0.0531   1.3235   1.9325   3.5624
     4.0281   4.3594   5.8507   6.5187   7.7879   9.9715  11.4006  12.0830
    16.6408  17.6907  18.6059

          k =-0.3571 0.2143 0.0714 (   854 PWs)   bands (ev):

    -9.3487  -6.3680  -3.7958  -2.2188   0.2461   1.3867   1.8722   3.1889
     4.3072   4.6659   5.4706   6.6028   7.8134   9.9594  11.2771  12.2146
    16.4195  17.9248  18.6608

          k = 0.2143-0.0714-0.5000 (   842 PWs)   bands (ev):

    -9.0094  -6.8008  -4.0840  -1.6736  -0.1046   1.1948   2.1087   3.1773
     4.1941   4.7342   5.8518   6.1439   8.1394   9.6209  11.1183  11.9480
    16.9635  18.3360  19.1128

          k = 0.3571-0.0714 0.3571 (   844 PWs)   bands (ev):

    -8.8854  -5.8314  -5.4433  -2.1025   0.0720   1.5994   2.0354   2.5919
     4.3683   4.9689   5.8610   6.9608   7.6331   9.3995  10.8455  12.8973
    17.1606  18.2745  19.3351

          k =-0.3571 0.0714 0.3571 (   844 PWs)   bands (ev):

    -8.8499  -6.3327  -4.7875  -2.3636   0.2169   1.4274   1.8655   3.1851
     3.9940   4.9555   5.5697   7.1750   7.7159   9.5207  11.5456  12.0076
    17.6576  18.0666  19.3100

          k = 0.3571-0.0714-0.5000 (   844 PWs)   bands (ev):

    -8.5402  -6.3986  -5.1798  -2.5172   0.4660   1.2314   2.1668   2.5516
     4.2362   4.7802   6.2140   7.1260   7.5613   9.3702  11.2816  12.3884
    18.0610  18.4180  19.0657

          k = 0.2143-0.2143 0.2143 (   844 PWs)   bands (ev):

    -9.5755  -5.5661  -4.2148  -2.4220   0.0992   1.0913   2.4297   3.2351
     3.3755   4.8774   6.5026   7.0079   7.1984   9.8260  11.7698  12.9139
    16.0063  16.9460  17.7338

          k = 0.2143-0.2143 0.3571 (   853 PWs)   bands (ev):

    -9.0706  -6.0760  -4.5200  -2.1346  -0.4855   0.8639   2.1546   2.8197
     4.4511   5.1894   6.5146   6.8879   7.2114   9.8675  11.4443  12.6022
    16.8778  17.4688  18.6156

          k =-0.3571 0.2143 0.2143 (   853 PWs)   bands (ev):

    -9.0643  -6.2313  -3.8580  -2.9918   0.2391   0.2875   2.2662   3.4034
     3.9791   5.1598   6.4329   6.9241   7.2251   9.8889  11.4790  12.5689
    16.5228  18.0673  18.4522

          k = 0.2143-0.2143-0.5000 (   852 PWs)   bands (ev):

    -8.7286  -6.5650  -4.4573  -1.8678  -0.8148   0.4930   2.1355   2.8278
     4.9753   5.5568   6.1023   6.7594   7.0758  10.5282  11.0581  12.1892
    17.3130  18.6047  18.8212

          k = 0.3571-0.2143 0.3571 (   846 PWs)   bands (ev):

    -8.5959  -5.8481  -5.2023  -2.3129  -0.9386   0.7127   0.9283   3.4515
     5.1779   6.0879   6.3104   6.4953   7.3154  10.4570  11.2002  12.9003
    17.2034  17.8847  18.9934

          k =-0.3571 0.2143 0.3571 (   846 PWs)   bands (ev):

    -8.5857  -6.1273  -4.6778  -2.7967  -0.6610   0.2642   1.3095   3.8527
     4.9707   5.5704   6.3610   6.7010   7.3544  10.3206  11.6976  12.5340
    17.3590  17.9906  18.8964

          k = 0.3571-0.2143-0.5000 (   854 PWs)   bands (ev):

    -8.2800  -6.1739  -5.0876  -2.5492  -0.9109   0.1199   0.9234   3.8255
     5.5539   5.8830   6.0954   6.6976   7.3083  10.7648  11.4542  12.5988
    18.0083  18.2211  18.7603

          k = 0.3571-0.3571 0.3571 (   850 PWs)   bands (ev):

    -8.1540  -5.8527  -4.8217  -3.0969  -1.1706  -0.4829   0.0382   5.0162
     5.3718   5.7079   6.2821   7.1509   7.6981  10.9701  11.9495  12.9598
    17.3786  18.0564  18.7695

          k = 0.3571-0.3571-0.5000 (   866 PWs)   bands (ev):

    -7.8898  -5.7792  -5.0195  -2.9723  -1.5593  -0.7314  -0.3471   4.9700
     5.2530   6.1702   6.8709   7.0268   7.7694  11.2641  12.2137  12.9319
    17.8516  18.1202  18.4693

     the Fermi energy is    11.6156 ev

!    total energy              =     -88.04807361 Ry
     Harris-Foulkes estimate   =     -88.04807361 Ry
     estimated scf accuracy    <          6.5E-10 Ry

     The total energy is the sum of the following terms:

     one-electron contribution =      14.90648616 Ry
     hartree contribution      =      11.48421533 Ry
     xc contribution           =     -25.65337610 Ry
     ewald contribution        =     -88.78423647 Ry
     smearing contrib. (-TS)   =      -0.00116253 Ry

     convergence has been achieved in   7 iterations

     Forces acting on atoms (cartesian axes, Ry/au):

     atom    1 type  1   force =    -0.01544151    0.03469890   -0.01544151
     atom    2 type  1   force =    -0.01059406   -0.01059406    0.00322510
     atom    3 type  1   force =     0.00322510   -0.01059406   -0.01059406
     atom    4 type  1   force =    -0.01059406    0.00322510   -0.01059406
     atom    5 type  1   force =     0.03469890   -0.01544151   -0.01544151
     atom    6 type  1   force =    -0.01544151   -0.01544151    0.03469890
     atom    7 type  2   force =     0.01414713    0.01414713    0.01414713

     Total force =     0.079673     Total SCF correction =     0.000035


     Computing stress (Cartesian axis) and pressure

          total   stress  (Ry/bohr**3)                   (kbar)     P= -209.41
  -0.00142355   0.00113865   0.00113865       -209.41    167.50    167.50
   0.00113865  -0.00142355   0.00113865        167.50   -209.41    167.50
   0.00113865   0.00113865  -0.00142355        167.50    167.50   -209.41


     number of scf cycles    =   2
     number of bfgs steps    =   1

     energy   old            =     -88.0198068137 Ry
     energy   new            =     -88.0480736068 Ry

     CASE: energy  _new < energy  _old

     new trust radius        =       0.0657946677 bohr
     new conv_thr            =       0.0000000100 Ry


ATOMIC_POSITIONS (alat)
C        0.235386485   0.761130547   0.235386485
C       -0.000956125  -0.000956125   0.508750181
C        0.508750181  -0.000956125  -0.000956125
C       -0.000956125   0.508750181  -0.000956125
C        0.761130547   0.235386485   0.235386485
C        0.235386485   0.235386485   0.761130547
N        0.761258553   0.761258553   0.761258553



     Writing output data file NV.save/
     NEW-OLD atomic charge density approx. for the potential

     total cpu time spent up to now is       33.4 secs

     Self-consistent Calculation

     iteration #  1     ecut=    30.00 Ry     beta= 0.70
     Davidson diagonalization with overlap
     ethr =  1.00E-06,  avg # of iterations =  9.0

     total cpu time spent up to now is       37.4 secs

     total energy              =     -88.05272811 Ry
     Harris-Foulkes estimate   =     -88.05382228 Ry
     estimated scf accuracy    <       0.00178421 Ry

     iteration #  2     ecut=    30.00 Ry     beta= 0.70
     Davidson diagonalization with overlap
     ethr =  6.15E-06,  avg # of iterations =  3.1

     total cpu time spent up to now is       39.3 secs

     total energy              =     -88.05279962 Ry
     Harris-Foulkes estimate   =     -88.05382802 Ry
     estimated scf accuracy    <       0.00213996 Ry

     iteration #  3     ecut=    30.00 Ry     beta= 0.70
     Davidson diagonalization with overlap
     ethr =  6.15E-06,  avg # of iterations =  2.2

     total cpu time spent up to now is       40.8 secs

     total energy              =     -88.05329993 Ry
     Harris-Foulkes estimate   =     -88.05337156 Ry
     estimated scf accuracy    <       0.00017158 Ry

     iteration #  4     ecut=    30.00 Ry     beta= 0.70
     Davidson diagonalization with overlap
     ethr =  5.92E-07,  avg # of iterations =  2.0

     total cpu time spent up to now is       42.2 secs

     total energy              =     -88.05333404 Ry
     Harris-Foulkes estimate   =     -88.05333533 Ry
     estimated scf accuracy    <       0.00000362 Ry

     iteration #  5     ecut=    30.00 Ry     beta= 0.70
     Davidson diagonalization with overlap
     ethr =  1.25E-08,  avg # of iterations =  2.3

     total cpu time spent up to now is       44.0 secs

     total energy              =     -88.05333499 Ry
     Harris-Foulkes estimate   =     -88.05333512 Ry
     estimated scf accuracy    <       0.00000029 Ry

     iteration #  6     ecut=    30.00 Ry     beta= 0.70
     Davidson diagonalization with overlap
     ethr =  9.84E-10,  avg # of iterations =  2.0

     total cpu time spent up to now is       45.7 secs

     total energy              =     -88.05333505 Ry
     Harris-Foulkes estimate   =     -88.05333506 Ry
     estimated scf accuracy    <       0.00000001 Ry

     iteration #  7     ecut=    30.00 Ry     beta= 0.70
     Davidson diagonalization with overlap
     ethr =  4.71E-11,  avg # of iterations =  2.0

     total cpu time spent up to now is       47.4 secs

     End of self-consistent calculation

          k = 0.0714 0.0714 0.0714 (   844 PWs)   bands (ev):

   -10.6756  -4.2366  -2.9981  -2.9981  -0.5400  -0.5400   3.4364   3.4364
     4.6442   4.8247   5.7335   6.2838   6.2838  11.8234  13.4200  13.4200
    14.5731  15.7804  15.7804

          k = 0.0714 0.0714 0.2143 (   844 PWs)   bands (ev):

   -10.3877  -5.1466  -3.3511  -2.7963  -0.4051   0.7765   2.8805   3.2644
     4.6013   4.8403   5.7508   5.9003   6.1134  11.0186  12.9566  13.0905
    15.2491  16.2160  16.8199

          k = 0.0714 0.0714 0.3571 (   848 PWs)   bands (ev):

    -9.8908  -6.4541  -3.0536  -2.5019  -0.2293   1.6799   2.3019   2.9727
     4.1662   4.1812   5.7154   5.7648   7.2728  10.0424  12.2157  12.3989
    15.6753  17.5797  18.1533

          k = 0.0714 0.0714-0.5000 (   842 PWs)   bands (ev):

    -9.5485  -7.1192  -2.7920  -2.3534  -0.1435   1.8817   2.0981   2.6870
     3.8066   4.0054   5.6071   5.8350   8.8520   9.1090  11.4456  12.1534
    15.7379  17.8525  19.7541

          k = 0.0714 0.2143 0.2143 (   845 PWs)   bands (ev):

   -10.1084  -4.9941  -4.5536  -2.7697   0.0966   1.4616   2.2233   3.4910
     4.0844   4.9612   5.3689   6.2246   6.4700  10.0831  12.5000  13.2870
    15.8341  16.7233  16.9861

          k = 0.0714 0.2143 0.3571 (   854 PWs)   bands (ev):

    -9.6234  -6.1615  -4.3273  -2.5060   0.0383   1.5908   2.0182   3.2758
     4.1808   4.6723   5.3236   6.0677   7.6649   9.1996  11.9265  12.8335
    16.5814  17.4092  18.5065

          k = 0.0714 0.2143-0.5000 (   842 PWs)   bands (ev):

    -9.2798  -6.8760  -3.9874  -2.3777  -0.0156   1.3219   2.0448   2.9341
     4.3028   4.6410   5.2661   6.0891   8.4181   9.2100  11.4760  12.2201
    16.7150  18.6160  19.2552

          k = 0.0714 0.3571 0.3571 (   844 PWs)   bands (ev):

    -9.1607  -5.8231  -5.5510  -2.5080  -0.2122   1.8723   1.8916   2.8300
     4.3869   4.4913   5.5510   6.7590   8.0178   8.7207  11.5493  12.9631
    17.1504  18.3128  18.8314

          k = 0.0714 0.3571-0.5000 (   844 PWs)   bands (ev):

    -8.8312  -6.4866  -5.2485  -2.6463  -0.0752   1.5413   1.9655   2.6625
     4.0222   4.7123   5.7143   7.1335   7.7865   9.2483  11.5627  12.4902
    17.9481  18.4120  19.0895

          k = 0.0714-0.5000-0.5000 (   856 PWs)   bands (ev):

    -8.5422  -6.2280  -5.8892  -2.8944   0.3250   1.3854   1.8162   2.3967
     4.0762   4.4964   6.1787   7.4909   7.5972   9.3200  11.5070  12.6981
    17.7947  18.5996  19.7679

          k = 0.2143 0.2143 0.2143 (   844 PWs)   bands (ev):

    -9.8393  -4.6804  -4.3265  -4.3265   0.9116   0.9116   2.8264   3.1552
     3.1552   5.6172   6.0550   6.0550   6.8086   9.0210  13.0225  13.0225
    16.0769  16.9695  16.9695

          k = 0.2143 0.2143 0.3571 (   853 PWs)   bands (ev):

    -9.3694  -5.8533  -4.0371  -3.9817   0.1309   0.7700   2.1830   3.1937
     4.3666   5.6622   5.8689   6.1469   7.4189   8.6264  12.7216  12.7386
    16.7316  17.4674  18.0167

          k = 0.2143 0.2143-0.5000 (   852 PWs)   bands (ev):

    -9.0276  -6.6230  -3.7961  -3.5238  -0.2237   0.2871   2.1218   3.2866
     4.6850   5.3067   5.7971   6.4706   7.2751   9.6464  11.8273  12.5957
    16.8865  18.7071  19.6540

          k = 0.2143 0.3571 0.3571 (   846 PWs)   bands (ev):

    -8.9277  -5.4391  -5.3135  -3.6165  -0.5816   0.5969   1.1193   3.9455
     5.2295   5.6511   6.0546   6.6909   6.8013   9.1927  12.5466  13.0009
    17.1509  17.9908  18.1487

          k = 0.2143 0.3571-0.5000 (   854 PWs)   bands (ev):

    -8.6049  -6.2141  -4.9582  -3.2904  -0.9158   0.1575   0.9717   4.0988
     5.2214   5.7798   6.1118   6.3464   7.2377  10.0996  12.1956  12.7725
    17.6398  18.2957  19.0938

          k = 0.2143-0.5000-0.5000 (   856 PWs)   bands (ev):

    -8.3237  -5.9540  -5.6495  -3.0757  -1.0238   0.0513   0.4084   4.1297
     5.5792   5.7093   5.9832   6.4571   7.6622  10.5717  12.0216  12.8825
    17.7893  18.6144  19.2416

          k = 0.3571 0.3571 0.3571 (   850 PWs)   bands (ev):

    -8.5260  -4.9460  -4.9460  -4.7711  -0.5457  -0.5457  -0.1368   5.4918
     5.4918   5.6480   6.4317   6.4317   7.2171   9.8817  13.0838  13.0838
    17.1370  18.0866  18.0866

          k = 0.3571 0.3571-0.5000 (   866 PWs)   bands (ev):

    -8.2343  -5.7682  -4.7415  -4.0795  -1.0386  -1.0167  -0.2900   5.2554
     5.5602   5.7539   6.3759   6.9212   7.6004  10.6906  12.7836  13.1161
    17.4430  18.2440  18.8158

          k = 0.3571-0.5000-0.5000 (   876 PWs)   bands (ev):

    -7.9941  -5.4680  -5.2751  -3.7466  -1.5830  -1.0628  -0.8105   4.8542
     5.6063   6.1180   6.8271   7.1355   7.9258  11.1588  12.8959  13.1538
    17.5159  18.5161  18.5309

          k =-0.5000-0.5000-0.5000 (   840 PWs)   bands (ev):

    -7.8156  -5.0624  -5.0624  -4.3021  -1.8479  -1.3171  -1.3171   4.4327
     6.1952   6.1952   7.3095   7.3095   8.2054  11.3398  13.2966  13.2966
    17.2289  18.4078  18.4078

          k = 0.0714-0.0714 0.0714 (   844 PWs)   bands (ev):

   -10.6711  -4.5558  -3.0041  -2.0915  -1.2005  -0.5268   3.3011   3.5994
     4.3266   4.8096   5.9539   6.3303   6.4481  12.0975  13.0254  13.4309
    14.6049  15.7618  15.8429

          k = 0.0714-0.0714 0.2143 (   844 PWs)   bands (ev):

   -10.3785  -5.3495  -3.4637  -1.6633  -1.2017   0.6717   2.6944   3.4802
     4.0967   4.8260   5.8372   6.1796   6.4071  11.4572  12.3800  13.0627
    15.2500  16.2775  16.9492

          k =-0.2143 0.0714 0.0714 (   844 PWs)   bands (ev):

   -10.3741  -5.4761  -2.8123  -2.5848  -0.3679   0.1892   2.8652   3.0857
     4.0705   5.1344   5.6216   6.2366   6.6071  11.6816  12.1793  12.9523
    15.1007  16.6007  16.8610

          k = 0.0714-0.0714 0.3571 (   848 PWs)   bands (ev):

    -9.8782  -6.5267  -3.3506  -1.3622  -0.9862   1.6315   2.1373   3.1531
     3.5904   4.4249   5.6486   6.0761   7.4318  10.4559  11.7554  12.3233
    15.6670  17.6356  18.2074

          k =-0.3571 0.0714 0.0714 (   848 PWs)   bands (ev):

    -9.8714  -6.5880  -2.7007  -2.5192  -0.1865   1.4739   2.3331   2.3929
     3.8621   4.7519   5.5305   5.9742   7.6024  10.6319  11.4422  12.3879
    15.4986  17.7625  18.7471

          k = 0.0714-0.0714-0.5000 (   842 PWs)   bands (ev):

    -9.5449  -7.1223  -3.2446  -1.2589  -0.8309   1.6285   2.2597   3.1174
     3.3530   4.0346   5.4740   6.1052   8.6432   9.4545  11.4931  11.9364
    15.8151  17.8196  19.7725

          k = 0.2143-0.0714 0.2143 (   845 PWs)   bands (ev):

   -10.0938  -5.3021  -4.5575  -1.5234  -0.9322   1.5256   2.0423   3.5676
     3.8256   4.5415   5.7779   6.5429   6.6212  10.6263  11.8240  13.2944
    15.8427  16.6799  17.3133

          k =-0.2143 0.0714 0.2143 (   845 PWs)   bands (ev):

   -10.0804  -5.7198  -3.8482  -2.1669  -0.1296   0.9669   1.9840   3.2664
     4.1386   4.3836   5.7109   6.5465   7.1026  10.9015  11.8323  12.7644
    15.8389  16.7649  17.3802

          k = 0.2143-0.0714 0.3571 (   854 PWs)   bands (ev):

    -9.6044  -6.2521  -4.5085  -1.5577  -0.5581   1.4030   1.9860   3.0897
     3.9061   4.7348   5.5168   6.3629   7.6291   9.8842  11.2867  12.8121
    16.6515  17.3973  18.6632

          k =-0.2143 0.0714 0.3571 (   854 PWs)   bands (ev):

    -9.5850  -6.4402  -4.1805  -1.8475  -0.1874   1.1667   1.8164   3.4336
     3.7768   4.2391   5.7255   6.4416   7.8461  10.1371  11.5150  12.1719
    16.6177  17.7368  18.6116

          k =-0.3571 0.2143 0.0714 (   854 PWs)   bands (ev):

    -9.5834  -6.4825  -3.9412  -2.3054   0.1361   1.3221   1.6676   3.0105
     4.1882   4.4548   5.3758   6.4912   7.8815  10.1525  11.3293  12.3428
    16.3771  17.9560  18.7187

          k = 0.2143-0.0714-0.5000 (   842 PWs)   bands (ev):

    -9.2690  -6.8870  -4.2416  -1.7019  -0.2491   1.0252   1.9759   3.0392
     4.0219   4.5158   5.7442   6.0899   8.2617   9.7332  11.2354  12.0617
    16.8966  18.5605  19.1684

          k = 0.3571-0.0714 0.3571 (   844 PWs)   bands (ev):

    -9.1366  -5.9828  -5.5528  -2.0962  -0.0885   1.3557   1.9511   2.4087
     4.2363   4.8976   5.6558   6.8615   7.7606   9.5802  10.9529  12.9537
    17.1337  18.2341  19.3343

          k =-0.3571 0.0714 0.3571 (   844 PWs)   bands (ev):

    -9.1059  -6.4537  -4.9293  -2.3588   0.0233   1.3090   1.6981   2.9803
     3.9808   4.7546   5.3560   7.1150   7.8659   9.7120  11.5824  12.1063
    17.7060  18.0118  19.2941

          k = 0.3571-0.0714-0.5000 (   844 PWs)   bands (ev):

    -8.8164  -6.5103  -5.3239  -2.4759   0.2383   1.0974   1.9905   2.3718
     4.2086   4.6553   5.8925   7.1210   7.7400   9.5697  11.3128  12.4678
    18.0002  18.4236  19.1446

          k = 0.2143-0.2143 0.2143 (   844 PWs)   bands (ev):

    -9.7952  -5.7149  -4.3370  -2.5423   0.0462   1.0336   2.1819   3.0917
     3.1557   4.8137   6.3811   6.8261   7.2650  10.0049  11.8388  13.0055
    16.0495  16.9442  17.6045

          k = 0.2143-0.2143 0.3571 (   853 PWs)   bands (ev):

    -9.3121  -6.2027  -4.6559  -2.2652  -0.4994   0.7913   1.9724   2.5999
     4.1513   5.1632   6.4029   6.7756   7.3463   9.9727  11.5384  12.6918
    16.9043  17.4674  18.5494

          k =-0.3571 0.2143 0.2143 (   853 PWs)   bands (ev):

    -9.3069  -6.3528  -3.9933  -3.1292   0.2033   0.2419   2.0724   3.2003
     3.7524   5.0453   6.3502   6.7582   7.3920  10.0172  11.5044  12.7076
    16.4981  18.0850  18.4525

          k = 0.2143-0.2143-0.5000 (   852 PWs)   bands (ev):

    -8.9953  -6.6617  -4.6066  -2.0052  -0.8159   0.4088   1.9860   2.5757
     4.6553   5.4576   6.0914   6.6476   7.2662  10.5858  11.1483  12.3052
    17.2823  18.7725  18.9455

          k = 0.3571-0.2143 0.3571 (   846 PWs)   bands (ev):

    -8.8559  -5.9965  -5.3185  -2.4364  -0.9609   0.6624   0.7818   3.1683
     4.8839   6.0354   6.2792   6.6676   7.1798  10.5354  11.2915  12.9676
    17.2109  17.8939  18.9903

          k =-0.3571 0.2143 0.3571 (   846 PWs)   bands (ev):

    -8.8479  -6.2553  -4.8157  -2.9112  -0.7323   0.2409   1.1729   3.5647
     4.7671   5.4237   6.4568   6.7133   7.2699  10.4150  11.7271  12.6476
    17.3710  17.9972  18.8857

          k = 0.3571-0.2143-0.5000 (   854 PWs)   bands (ev):

    -8.5617  -6.2950  -5.2265  -2.6235  -1.0215   0.0743   0.8248   3.5180
     5.3222   5.7801   6.3222   6.5522   7.2664  10.8865  11.4731  12.6823
    17.9807  18.2491  18.8483

          k = 0.3571-0.3571 0.3571 (   850 PWs)   bands (ev):

    -8.4307  -5.9922  -4.9515  -3.2959  -1.1564  -0.5133  -0.0615   4.7024
     5.3383   5.6497   6.2736   7.0740   7.5693  11.0228  11.9929  13.0438
    17.3897  18.0810  18.8108

          k = 0.3571-0.3571-0.5000 (   866 PWs)   bands (ev):

    -8.1801  -5.9193  -5.1522  -3.2025  -1.5270  -0.7752  -0.4056   4.9206
     5.2658   5.8040   6.8138   6.9700   7.6739  11.3042  12.2578  13.0055
    17.8970  18.1265  18.4835

     the Fermi energy is    11.7046 ev

!    total energy              =     -88.05333506 Ry
     Harris-Foulkes estimate   =     -88.05333506 Ry
     estimated scf accuracy    <          2.4E-10 Ry

     The total energy is the sum of the following terms:

     one-electron contribution =      13.45467800 Ry
     hartree contribution      =      12.14996212 Ry
     xc contribution           =     -25.71848183 Ry
     ewald contribution        =     -87.93846749 Ry
     smearing contrib. (-TS)   =      -0.00102586 Ry

     convergence has been achieved in   7 iterations

     Forces acting on atoms (cartesian axes, Ry/au):

     atom    1 type  1   force =    -0.00128489    0.00938757   -0.00128489
     atom    2 type  1   force =     0.00257916    0.00257916    0.00115624
     atom    3 type  1   force =     0.00115624    0.00257916    0.00257916
     atom    4 type  1   force =     0.00257916    0.00115624    0.00257916
     atom    5 type  1   force =     0.00938757   -0.00128489   -0.00128489
     atom    6 type  1   force =    -0.00128489   -0.00128489    0.00938757
     atom    7 type  2   force =    -0.01313235   -0.01313235   -0.01313235

     Total force =     0.028906     Total SCF correction =     0.000026


     Computing stress (Cartesian axis) and pressure

          total   stress  (Ry/bohr**3)                   (kbar)     P= -176.33
  -0.00119868   0.00112899   0.00112899       -176.33    166.08    166.08
   0.00112899  -0.00119868   0.00112899        166.08   -176.33    166.08
   0.00112899   0.00112899  -0.00119868        166.08    166.08   -176.33


     number of scf cycles    =   3
     number of bfgs steps    =   2

     energy   old            =     -88.0480736068 Ry
     energy   new            =     -88.0533350560 Ry

     CASE: energy  _new < energy  _old

     new trust radius        =       0.0189886800 bohr
     new conv_thr            =       0.0000000100 Ry


ATOMIC_POSITIONS (alat)
C        0.234681906   0.763214944   0.234681906
C       -0.000689760  -0.000689760   0.509168629
C        0.509168629  -0.000689760  -0.000689760
C       -0.000689760   0.509168629  -0.000689760
C        0.763214944   0.234681906   0.234681906
C        0.234681906   0.234681906   0.763214944
N        0.759632135   0.759632135   0.759632135



     Writing output data file NV.save/
     NEW-OLD atomic charge density approx. for the potential

     total cpu time spent up to now is       48.3 secs

     Self-consistent Calculation

     iteration #  1     ecut=    30.00 Ry     beta= 0.70
     Davidson diagonalization with overlap
     ethr =  1.00E-06,  avg # of iterations =  4.0

     total cpu time spent up to now is       51.3 secs

     total energy              =     -88.05406670 Ry
     Harris-Foulkes estimate   =     -88.05412581 Ry
     estimated scf accuracy    <       0.00011305 Ry

     iteration #  2     ecut=    30.00 Ry     beta= 0.70
     Davidson diagonalization with overlap
     ethr =  3.90E-07,  avg # of iterations =  2.8

     total cpu time spent up to now is       53.1 secs

     total energy              =     -88.05407034 Ry
     Harris-Foulkes estimate   =     -88.05410945 Ry
     estimated scf accuracy    <       0.00007096 Ry

     iteration #  3     ecut=    30.00 Ry     beta= 0.70
     Davidson diagonalization with overlap
     ethr =  2.45E-07,  avg # of iterations =  2.5

     total cpu time spent up to now is       54.9 secs

     total energy              =     -88.05408963 Ry
     Harris-Foulkes estimate   =     -88.05409794 Ry
     estimated scf accuracy    <       0.00002074 Ry

     iteration #  4     ecut=    30.00 Ry     beta= 0.70
     Davidson diagonalization with overlap
     ethr =  7.15E-08,  avg # of iterations =  2.0

     total cpu time spent up to now is       56.5 secs

     total energy              =     -88.05409195 Ry
     Harris-Foulkes estimate   =     -88.05409341 Ry
     estimated scf accuracy    <       0.00000016 Ry

     iteration #  5     ecut=    30.00 Ry     beta= 0.70
     Davidson diagonalization with overlap
     ethr =  5.61E-10,  avg # of iterations =  2.8

     total cpu time spent up to now is       58.8 secs

     total energy              =     -88.05409202 Ry
     Harris-Foulkes estimate   =     -88.05409202 Ry
     estimated scf accuracy    <       0.00000001 Ry

     iteration #  6     ecut=    30.00 Ry     beta= 0.70
     Davidson diagonalization with overlap
     ethr =  3.81E-11,  avg # of iterations =  2.1

     total cpu time spent up to now is       60.7 secs

     End of self-consistent calculation

          k = 0.0714 0.0714 0.0714 (   844 PWs)   bands (ev):

   -10.6730  -4.2477  -3.0026  -3.0026  -0.5554  -0.5554   3.4451   3.4451
     4.6302   4.8216   5.6981   6.2672   6.2672  11.8111  13.4269  13.4269
    14.5358  15.7817  15.7817

          k = 0.0714 0.0714 0.2143 (   844 PWs)   bands (ev):

   -10.3840  -5.1571  -3.3603  -2.8018  -0.4193   0.7687   2.8851   3.2615
     4.5864   4.8109   5.7459   5.8920   6.1010  11.0131  12.9641  13.0987
    15.2192  16.2112  16.8223

          k = 0.0714 0.0714 0.3571 (   848 PWs)   bands (ev):

    -9.8839  -6.4676  -3.0641  -2.5091  -0.2413   1.6845   2.3019   2.9490
     4.1540   4.1648   5.6902   5.7602   7.2794  10.0347  12.2295  12.4106
    15.6636  17.5564  18.1740

          k = 0.0714 0.0714-0.5000 (   842 PWs)   bands (ev):

    -9.5377  -7.1365  -2.8032  -2.3612  -0.1546   1.8739   2.0946   2.6902
     3.7999   3.9776   5.5823   5.8284   8.8300   9.1298  11.4570  12.1688
    15.7275  17.8500  19.7469

          k = 0.0714 0.2143 0.2143 (   845 PWs)   bands (ev):

   -10.1033  -5.0080  -4.5606  -2.7795   0.0919   1.4627   2.2125   3.4801
     4.0488   4.9449   5.3644   6.2196   6.4760  10.0812  12.5093  13.2920
    15.8013  16.7219  16.9889

          k = 0.0714 0.2143 0.3571 (   854 PWs)   bands (ev):

    -9.6147  -6.1765  -4.3380  -2.5177   0.0425   1.5827   2.0102   3.2546
     4.1553   4.6603   5.3112   6.0672   7.6805   9.1909  11.9395  12.8403
    16.5615  17.3995  18.5023

          k = 0.0714 0.2143-0.5000 (   842 PWs)   bands (ev):

    -9.2667  -6.8949  -3.9994  -2.3897  -0.0118   1.3093   2.0261   2.9391
     4.2941   4.6093   5.2595   6.0781   8.4177   9.2197  11.4794  12.2355
    16.6972  18.5989  19.2668

          k = 0.0714 0.3571 0.3571 (   844 PWs)   bands (ev):

    -9.1476  -5.8483  -5.5580  -2.5189  -0.2071   1.8653   1.8840   2.7954
     4.3888   4.4802   5.5215   6.7580   8.0480   8.7035  11.5650  12.9676
    17.1346  18.2953  18.8207

          k = 0.0714 0.3571-0.5000 (   844 PWs)   bands (ev):

    -8.8122  -6.5108  -5.2638  -2.6542  -0.0764   1.5346   1.9557   2.6388
     4.0218   4.7020   5.6942   7.1201   7.7932   9.2604  11.5722  12.4980
    17.9337  18.3834  19.0916

          k = 0.0714-0.5000-0.5000 (   856 PWs)   bands (ev):

    -8.5170  -6.2684  -5.8961  -2.8991   0.3174   1.3668   1.8265   2.3761
     4.0644   4.4921   6.1540   7.4955   7.5836   9.3415  11.5170  12.7043
    17.7888  18.5842  19.7406

          k = 0.2143 0.2143 0.2143 (   844 PWs)   bands (ev):

    -9.8328  -4.6980  -4.3348  -4.3348   0.9200   0.9200   2.7847   3.1319
     3.1319   5.6021   6.0560   6.0560   6.8255   9.0172  13.0239  13.0239
    16.0445  16.9730  16.9730

          k = 0.2143 0.2143 0.3571 (   853 PWs)   bands (ev):

    -9.3590  -5.8692  -4.0518  -3.9920   0.1419   0.7684   2.1563   3.1657
     4.3388   5.6598   5.8702   6.1393   7.4551   8.6049  12.7231  12.7454
    16.7083  17.4552  18.0223

          k = 0.2143 0.2143-0.5000 (   852 PWs)   bands (ev):

    -9.0122  -6.6432  -3.8075  -3.5405  -0.2125   0.2707   2.1157   3.2560
     4.6768   5.3135   5.7756   6.4559   7.2912   9.6440  11.8264  12.6111
    16.8654  18.6795  19.6849

          k = 0.2143 0.3571 0.3571 (   846 PWs)   bands (ev):

    -8.9127  -5.4653  -5.3216  -3.6311  -0.5762   0.6063   1.0874   3.9154
     5.2042   5.6578   6.0495   6.7173   6.7926   9.1838  12.5560  13.0021
    17.1269  17.9771  18.1477

          k = 0.2143 0.3571-0.5000 (   854 PWs)   bands (ev):

    -8.5838  -6.2383  -4.9747  -3.3066  -0.9155   0.1494   0.9651   4.0732
     5.2214   5.7846   6.0843   6.3648   7.2199  10.0989  12.2025  12.7832
    17.6168  18.2746  19.0946

          k = 0.2143-0.5000-0.5000 (   856 PWs)   bands (ev):

    -8.2963  -5.9936  -5.6574  -3.0911  -1.0336   0.0374   0.4163   4.1207
     5.5624   5.7175   5.9979   6.4221   7.6474  10.5774  12.0349  12.8901
    17.7782  18.6010  19.2093

          k = 0.3571 0.3571 0.3571 (   850 PWs)   bands (ev):

    -8.5061  -4.9562  -4.9562  -4.8093  -0.5354  -0.5354  -0.1719   5.4642
     5.4642   5.6730   6.4364   6.4364   7.1994   9.8788  13.0883  13.0883
    17.1121  18.0765  18.0765

          k = 0.3571 0.3571-0.5000 (   866 PWs)   bands (ev):

    -8.2082  -5.7927  -4.7533  -4.1134  -1.0574  -1.0055  -0.2914   5.2771
     5.5347   5.7538   6.3778   6.8960   7.5813  10.6912  12.7879  13.1290
    17.4205  18.2184  18.8036

          k = 0.3571-0.5000-0.5000 (   876 PWs)   bands (ev):

    -7.9627  -5.5019  -5.2851  -3.7856  -1.5975  -1.0598  -0.8011   4.8750
     5.6023   6.1194   6.8047   7.1073   7.9081  11.1618  12.9075  13.1631
    17.4975  18.5048  18.5085

          k =-0.5000-0.5000-0.5000 (   840 PWs)   bands (ev):

    -7.7815  -5.0742  -5.0742  -4.3721  -1.8647  -1.3062  -1.3062   4.4548
     6.1946   6.1946   7.2839   7.2839   8.1852  11.3440  13.3063  13.3063
    17.2089  18.3801  18.3801

          k = 0.0714-0.0714 0.0714 (   844 PWs)   bands (ev):

   -10.6685  -4.5649  -3.0082  -2.0940  -1.2210  -0.5430   3.3121   3.6106
     4.3132   4.8071   5.9352   6.2944   6.4278  12.0770  13.0326  13.4449
    14.5723  15.7644  15.8446

          k = 0.0714-0.0714 0.2143 (   844 PWs)   bands (ev):

   -10.3747  -5.3594  -3.4707  -1.6647  -1.2257   0.6613   2.7020   3.4856
     4.0849   4.8126   5.8250   6.1626   6.3807  11.4478  12.3912  13.0778
    15.2192  16.2771  16.9491

          k =-0.2143 0.0714 0.0714 (   844 PWs)   bands (ev):

   -10.3703  -5.4855  -2.8169  -2.5968  -0.3845   0.1752   2.8770   3.0896
     4.0650   5.1274   5.5965   6.2190   6.5808  11.6895  12.1679  12.9702
    15.0720  16.5945  16.8667

          k = 0.0714-0.0714 0.3571 (   848 PWs)   bands (ev):

    -9.8712  -6.5401  -3.3583  -1.3643  -1.0127   1.6418   2.1308   3.1426
     3.5835   4.4064   5.6411   6.0496   7.4236  10.4534  11.7708  12.3414
    15.6522  17.6111  18.2237

          k =-0.3571 0.0714 0.0714 (   848 PWs)   bands (ev):

    -9.8643  -6.6012  -2.7126  -2.5254  -0.2012   1.4499   2.3540   2.3920
     3.8580   4.7293   5.5062   5.9627   7.5860  10.6569  11.4310  12.4055
    15.4806  17.7504  18.7569

          k = 0.0714-0.0714-0.5000 (   842 PWs)   bands (ev):

    -9.5340  -7.1396  -3.2525  -1.2635  -0.8568   1.6518   2.2482   3.1032
     3.3382   4.0166   5.4708   6.0774   8.6284   9.4625  11.5096  11.9562
    15.8057  17.8054  19.7714

          k = 0.2143-0.0714 0.2143 (   845 PWs)   bands (ev):

   -10.0887  -5.3143  -4.5642  -1.5395  -0.9421   1.5235   2.0444   3.5605
     3.8154   4.5307   5.7469   6.5295   6.6184  10.6235  11.8389  13.3115
    15.8113  16.6840  17.3020

          k =-0.2143 0.0714 0.2143 (   845 PWs)   bands (ev):

   -10.0752  -5.7300  -3.8571  -2.1804  -0.1452   0.9572   1.9898   3.2695
     4.1362   4.3709   5.6920   6.5235   7.0818  10.9246  11.8180  12.7828
    15.8021  16.7719  17.3808

          k = 0.2143-0.0714 0.3571 (   854 PWs)   bands (ev):

    -9.5956  -6.2672  -4.5173  -1.5753  -0.5672   1.4062   1.9865   3.0804
     3.8989   4.7079   5.4951   6.3526   7.6269   9.8894  11.3014  12.8292
    16.6305  17.3932  18.6477

          k =-0.2143 0.0714 0.3571 (   854 PWs)   bands (ev):

    -9.5759  -6.4547  -4.1902  -1.8628  -0.2058   1.1876   1.7997   3.4154
     3.7787   4.2340   5.7060   6.4196   7.8281  10.1614  11.5151  12.1900
    16.5916  17.7277  18.6080

          k =-0.3571 0.2143 0.0714 (   854 PWs)   bands (ev):

    -9.5743  -6.4967  -3.9526  -2.3178   0.1296   1.3053   1.6657   3.0181
     4.1787   4.4423   5.3584   6.4697   7.8632  10.1940  11.3071  12.3627
    16.3490  17.9542  18.7152

          k = 0.2143-0.0714-0.5000 (   842 PWs)   bands (ev):

    -9.2557  -6.9062  -4.2513  -1.7178  -0.2655   1.0396   1.9676   3.0298
     4.0171   4.4947   5.7211   6.0783   8.2501   9.7520  11.2432  12.0812
    16.8835  18.5217  19.1718

          k = 0.3571-0.0714 0.3571 (   844 PWs)   bands (ev):

    -9.1231  -6.0070  -5.5597  -2.1082  -0.0968   1.3358   1.9608   2.4100
     4.2330   4.8703   5.6181   6.8613   7.7573   9.6038  10.9608  12.9661
    17.1186  18.2278  19.3018

          k =-0.3571 0.0714 0.3571 (   844 PWs)   bands (ev):

    -9.0917  -6.4723  -4.9436  -2.3694   0.0138   1.3131   1.6840   2.9692
     3.9743   4.7507   5.3366   7.0928   7.8565   9.7418  11.5734  12.1271
    17.6561  18.0258  19.2827

          k = 0.3571-0.0714-0.5000 (   844 PWs)   bands (ev):

    -8.7970  -6.5354  -5.3376  -2.4844   0.2247   1.0929   1.9861   2.3684
     4.1996   4.6419   5.8641   7.1102   7.7368   9.5977  11.3167  12.4789
    17.9901  18.3998  19.1288

          k = 0.2143-0.2143 0.2143 (   844 PWs)   bands (ev):

    -9.7884  -5.7264  -4.3446  -2.5610   0.0257   1.0371   2.2071   3.0706
     3.1345   4.8167   6.3553   6.8063   7.2504  10.0246  11.8317  13.0306
    16.0195  16.9500  17.5943

          k = 0.2143-0.2143 0.3571 (   853 PWs)   bands (ev):

    -9.3009  -6.2189  -4.6640  -2.2879  -0.5162   0.8035   1.9738   2.5921
     4.1340   5.1582   6.3769   6.7585   7.3403   9.9890  11.5390  12.7162
    16.8783  17.4674  18.5343

          k =-0.3571 0.2143 0.2143 (   853 PWs)   bands (ev):

    -9.2957  -6.3681  -4.0029  -3.1479   0.2114   0.2183   2.0849   3.1716
     3.7441   5.0537   6.3221   6.7387   7.3900  10.0393  11.4888  12.7304
    16.4701  18.0921  18.4429

          k = 0.2143-0.2143-0.5000 (   852 PWs)   bands (ev):

    -8.9793  -6.6831  -4.6149  -2.0317  -0.8314   0.4251   1.9776   2.5752
     4.6502   5.4293   6.0798   6.6258   7.2671  10.6004  11.1493  12.3297
    17.2721  18.7118  18.9379

          k = 0.3571-0.2143 0.3571 (   846 PWs)   bands (ev):

    -8.8394  -6.0199  -5.3263  -2.4606  -0.9738   0.6696   0.7776   3.1704
     4.8783   6.0092   6.2540   6.6676   7.1703  10.5586  11.2878  12.9873
    17.1903  17.8925  18.9672

          k =-0.3571 0.2143 0.3571 (   846 PWs)   bands (ev):

    -8.8311  -6.2753  -4.8281  -2.9320  -0.7423   0.2385   1.1751   3.5555
     4.7467   5.4330   6.4371   6.7135   7.2488  10.4251  11.7231  12.6703
    17.3389  18.0017  18.8738

          k = 0.3571-0.2143-0.5000 (   854 PWs)   bands (ev):

    -8.5393  -6.3222  -5.2381  -2.6452  -1.0365   0.0779   0.8247   3.5168
     5.3235   5.7568   6.3269   6.5207   7.2571  10.9036  11.4731  12.6994
    17.9698  18.2320  18.8202

          k = 0.3571-0.3571 0.3571 (   850 PWs)   bands (ev):

    -8.4079  -6.0166  -4.9614  -3.3290  -1.1748  -0.5043  -0.0581   4.7065
     5.3213   5.6638   6.2661   7.0437   7.5504  11.0286  11.9958  13.0639
    17.3644  18.0840  18.7897

          k = 0.3571-0.3571-0.5000 (   866 PWs)   bands (ev):

    -8.1518  -5.9498  -5.1623  -3.2411  -1.5422  -0.7650  -0.4014   4.9229
     5.2819   5.8018   6.7867   6.9415   7.6587  11.3091  12.2656  13.0224
    17.8790  18.1198  18.4573

     the Fermi energy is    11.7067 ev

!    total energy              =     -88.05409202 Ry
     Harris-Foulkes estimate   =     -88.05409202 Ry
     estimated scf accuracy    <          1.1E-09 Ry

     The total energy is the sum of the following terms:

     one-electron contribution =      13.38162191 Ry
     hartree contribution      =      12.18208923 Ry
     xc contribution           =     -25.72301455 Ry
     ewald contribution        =     -87.89375734 Ry
     smearing contrib. (-TS)   =      -0.00103127 Ry

     convergence has been achieved in   6 iterations

     Forces acting on atoms (cartesian axes, Ry/au):

     atom    1 type  1   force =    -0.00027515    0.00568493   -0.00027515
     atom    2 type  1   force =     0.00149593    0.00149593    0.00218468
     atom    3 type  1   force =     0.00218468    0.00149593    0.00149593
     atom    4 type  1   force =     0.00149593    0.00218468    0.00149593
     atom    5 type  1   force =     0.00568493   -0.00027515   -0.00027515
     atom    6 type  1   force =    -0.00027515   -0.00027515    0.00568493
     atom    7 type  2   force =    -0.01031116   -0.01031116   -0.01031116

     Total force =     0.021074     Total SCF correction =     0.000057


     Computing stress (Cartesian axis) and pressure

          total   stress  (Ry/bohr**3)                   (kbar)     P= -172.79
  -0.00117457   0.00110487   0.00110487       -172.79    162.53    162.53
   0.00110487  -0.00117457   0.00110487        162.53   -172.79    162.53
   0.00110487   0.00110487  -0.00117457        162.53    162.53   -172.79


     number of scf cycles    =   4
     number of bfgs steps    =   3

     energy   old            =     -88.0533350560 Ry
     energy   new            =     -88.0540920164 Ry

     CASE: energy  _new < energy  _old

     new trust radius        =       0.0208875481 bohr
     new conv_thr            =       0.0000000076 Ry


ATOMIC_POSITIONS (alat)
C        0.234197538   0.764952754   0.234197538
C       -0.000490604  -0.000490604   0.509790302
C        0.509790302  -0.000490604  -0.000490604
C       -0.000490604   0.509790302  -0.000490604
C        0.764952754   0.234197538   0.234197538
C        0.234197538   0.234197538   0.764952754
N        0.757843075   0.757843075   0.757843075



     Writing output data file NV.save/
     NEW-OLD atomic charge density approx. for the potential

     total cpu time spent up to now is       61.7 secs

     Self-consistent Calculation

     iteration #  1     ecut=    30.00 Ry     beta= 0.70
     Davidson diagonalization with overlap
     ethr =  1.00E-06,  avg # of iterations =  4.0

     total cpu time spent up to now is       64.7 secs

     total energy              =     -88.05456336 Ry
     Harris-Foulkes estimate   =     -88.05461692 Ry
     estimated scf accuracy    <       0.00010049 Ry

     iteration #  2     ecut=    30.00 Ry     beta= 0.70
     Davidson diagonalization with overlap
     ethr =  3.47E-07,  avg # of iterations =  2.9

     total cpu time spent up to now is       66.4 secs

     total energy              =     -88.05456569 Ry
     Harris-Foulkes estimate   =     -88.05460020 Ry
     estimated scf accuracy    <       0.00006298 Ry

     iteration #  3     ecut=    30.00 Ry     beta= 0.70
     Davidson diagonalization with overlap
     ethr =  2.17E-07,  avg # of iterations =  2.5

     total cpu time spent up to now is       68.1 secs

     total energy              =     -88.05458280 Ry
     Harris-Foulkes estimate   =     -88.05459023 Ry
     estimated scf accuracy    <       0.00001863 Ry

     iteration #  4     ecut=    30.00 Ry     beta= 0.70
     Davidson diagonalization with overlap
     ethr =  6.42E-08,  avg # of iterations =  2.0

     total cpu time spent up to now is       69.5 secs

     total energy              =     -88.05458615 Ry
     Harris-Foulkes estimate   =     -88.05458618 Ry
     estimated scf accuracy    <       0.00000014 Ry

     iteration #  5     ecut=    30.00 Ry     beta= 0.70
     Davidson diagonalization with overlap
     ethr =  4.84E-10,  avg # of iterations =  2.8

     total cpu time spent up to now is       71.5 secs

     total energy              =     -88.05458621 Ry
     Harris-Foulkes estimate   =     -88.05458622 Ry
     estimated scf accuracy    <       0.00000001 Ry

     iteration #  6     ecut=    30.00 Ry     beta= 0.70
     Davidson diagonalization with overlap
     ethr =  3.96E-11,  avg # of iterations =  2.0

     total cpu time spent up to now is       73.2 secs

     End of self-consistent calculation

          k = 0.0714 0.0714 0.0714 (   844 PWs)   bands (ev):

   -10.6666  -4.2558  -3.0011  -3.0011  -0.5613  -0.5613   3.4545   3.4545
     4.6252   4.8139   5.6763   6.2623   6.2623  11.7899  13.4354  13.4354
    14.5177  15.7807  15.7807

          k = 0.0714 0.0714 0.2143 (   844 PWs)   bands (ev):

   -10.3766  -5.1629  -3.3647  -2.8010  -0.4243   0.7690   2.8911   3.2614
     4.5808   4.7897   5.7420   5.8932   6.0976  10.9982  12.9690  13.1086
    15.2042  16.2080  16.8238

          k = 0.0714 0.0714 0.3571 (   848 PWs)   bands (ev):

    -9.8738  -6.4753  -3.0702  -2.5093  -0.2450   1.6945   2.3044   2.9324
     4.1507   4.1557   5.6759   5.7641   7.2831  10.0191  12.2428  12.4166
    15.6589  17.5339  18.1910

          k = 0.0714 0.0714-0.5000 (   842 PWs)   bands (ev):

    -9.5240  -7.1475  -2.8097  -2.3615  -0.1584   1.8700   2.0952   2.7012
     3.8004   3.9580   5.5668   5.8308   8.8096   9.1421  11.4644  12.1772
    15.7232  17.8348  19.7471

          k = 0.0714 0.2143 0.2143 (   845 PWs)   bands (ev):

   -10.0948  -5.0170  -4.5613  -2.7833   0.0943   1.4699   2.2066   3.4744
     4.0246   4.9382   5.3668   6.2225   6.4795  10.0688  12.5149  13.2983
    15.7857  16.7203  16.9910

          k = 0.0714 0.2143 0.3571 (   854 PWs)   bands (ev):

    -9.6032  -6.1851  -4.3423  -2.5238   0.0512   1.5797   2.0096   3.2421
     4.1392   4.6569   5.3082   6.0720   7.6924   9.1717  11.9476  12.8473
    16.5531  17.3925  18.4996

          k = 0.0714 0.2143-0.5000 (   842 PWs)   bands (ev):

    -9.2513  -6.9070  -4.0040  -2.3969  -0.0041   1.3022   2.0171   2.9493
     4.2914   4.5914   5.2587   6.0740   8.4115   9.2228  11.4803  12.2467
    16.6872  18.5784  19.2757

          k = 0.0714 0.3571 0.3571 (   844 PWs)   bands (ev):

    -9.1324  -5.8646  -5.5588  -2.5265  -0.1977   1.8510   1.8978   2.7731
     4.3947   4.4738   5.5091   6.7611   8.0709   8.6767  11.5753  12.9733
    17.1286  18.2814  18.8153

          k = 0.0714 0.3571-0.5000 (   844 PWs)   bands (ev):

    -8.7922  -6.5265  -5.2706  -2.6611  -0.0710   1.5318   1.9554   2.6272
     4.0235   4.6967   5.6903   7.1123   7.7899   9.2645  11.5784  12.5060
    17.9276  18.3606  19.0925

          k = 0.0714-0.5000-0.5000 (   856 PWs)   bands (ev):

    -8.4919  -6.2957  -5.8969  -2.9045   0.3195   1.3550   1.8387   2.3701
     4.0568   4.4912   6.1468   7.4891   7.5759   9.3521  11.5249  12.7115
    17.7889  18.5688  19.7194

          k = 0.2143 0.2143 0.2143 (   844 PWs)   bands (ev):

    -9.8231  -4.7105  -4.3362  -4.3362   0.9317   0.9317   2.7554   3.1177
     3.1177   5.5965   6.0637   6.0637   6.8368   9.0022  13.0242  13.0242
    16.0299  16.9753  16.9753

          k = 0.2143 0.2143 0.3571 (   853 PWs)   bands (ev):

    -9.3461  -5.8783  -4.0604  -3.9947   0.1542   0.7700   2.1401   3.1493
     4.3230   5.6643   5.8755   6.1403   7.4825   8.5755  12.7247  12.7484
    16.6983  17.4473  18.0269

          k = 0.2143 0.2143-0.5000 (   852 PWs)   bands (ev):

    -8.9950  -6.6560  -3.8109  -3.5502  -0.2009   0.2590   2.1172   3.2386
     4.6799   5.3244   5.7581   6.4517   7.2966   9.6379  11.8254  12.6211
    16.8526  18.6611  19.7005

          k = 0.2143 0.3571 0.3571 (   846 PWs)   bands (ev):

    -8.8961  -5.4822  -5.3231  -3.6389  -0.5691   0.6172   1.0659   3.8991
     5.1908   5.6678   6.0525   6.7307   6.7907   9.1696  12.5618  13.0037
    17.1158  17.9674  18.1482

          k = 0.2143 0.3571-0.5000 (   854 PWs)   bands (ev):

    -8.5623  -6.2537  -4.9822  -3.3164  -0.9122   0.1444   0.9648   4.0624
     5.2259   5.7971   6.0659   6.3708   7.2105  10.0933  12.2079  12.7924
    17.6031  18.2607  19.0954

          k = 0.2143-0.5000-0.5000 (   856 PWs)   bands (ev):

    -8.2698  -6.0200  -5.6587  -3.1017  -1.0358   0.0280   0.4256   4.1247
     5.5508   5.7305   5.9996   6.4029   7.6399  10.5757  12.0468  12.8986
    17.7740  18.5859  19.1836

          k = 0.3571 0.3571 0.3571 (   850 PWs)   bands (ev):

    -8.4859  -4.9591  -4.9591  -4.8355  -0.5246  -0.5246  -0.1974   5.4520
     5.4520   5.6834   6.4433   6.4433   7.1925   9.8710  13.0920  13.0920
    17.0986  18.0701  18.0701

          k = 0.3571 0.3571-0.5000 (   866 PWs)   bands (ev):

    -8.1830  -5.8077  -4.7570  -4.1343  -1.0720  -0.9945  -0.2888   5.2841
     5.5251   5.7652   6.3819   6.8771   7.5735  10.6871  12.7929  13.1402
    17.4065  18.2014  18.7963

          k = 0.3571-0.5000-0.5000 (   876 PWs)   bands (ev):

    -7.9334  -5.5234  -5.2878  -3.8090  -1.6092  -1.0552  -0.7912   4.8808
     5.6105   6.1316   6.7885   7.0872   7.9012  11.1598  12.9188  13.1731
    17.4863  18.4858  18.4943

          k =-0.5000-0.5000-0.5000 (   840 PWs)   bands (ev):

    -7.7505  -5.0779  -5.0779  -4.4182  -1.8800  -1.2954  -1.2954   4.4614
     6.2055   6.2055   7.2653   7.2653   8.1772  11.3437  13.3168  13.3168
    17.1956  18.3605  18.3605

          k = 0.0714-0.0714 0.0714 (   844 PWs)   bands (ev):

   -10.6621  -4.5708  -3.0064  -2.0919  -1.2312  -0.5497   3.3235   3.6223
     4.3083   4.7998   5.9283   6.2733   6.4201  12.0478  13.0408  13.4602
    14.5569  15.7640  15.8447

          k = 0.0714-0.0714 0.2143 (   844 PWs)   bands (ev):

   -10.3672  -5.3647  -3.4721  -1.6621  -1.2388   0.6587   2.7111   3.4936
     4.0803   4.8040   5.8163   6.1560   6.3672  11.4294  12.3994  13.0932
    15.2011  16.2771  16.9489

          k =-0.2143 0.0714 0.0714 (   844 PWs)   bands (ev):

   -10.3628  -5.4904  -2.8154  -2.6029  -0.3918   0.1687   2.8903   3.0963
     4.0655   5.1229   5.5774   6.2133   6.5671  11.6853  12.1592  12.9848
    15.0545  16.5905  16.8708

          k = 0.0714-0.0714 0.3571 (   848 PWs)   bands (ev):

    -9.8609  -6.5478  -3.3607  -1.3626  -1.0274   1.6552   2.1287   3.1396
     3.5814   4.3969   5.6417   6.0334   7.4165  10.4441  11.7804  12.3565
    15.6437  17.5825  18.2384

          k =-0.3571 0.0714 0.0714 (   848 PWs)   bands (ev):

    -9.8539  -6.6088  -2.7194  -2.5247  -0.2076   1.4335   2.3776   2.3952
     3.8599   4.7165   5.4875   5.9615   7.5736  10.6751  11.4160  12.4169
    15.4695  17.7295  18.7716

          k = 0.0714-0.0714-0.5000 (   842 PWs)   bands (ev):

    -9.5203  -7.1507  -3.2550  -1.2641  -0.8711   1.6757   2.2424   3.0949
     3.3323   4.0076   5.4748   6.0609   8.6116   9.4668  11.5196  11.9707
    15.8018  17.7787  19.7721

          k = 0.2143-0.0714 0.2143 (   845 PWs)   bands (ev):

   -10.0801  -5.3218  -4.5647  -1.5477  -0.9459   1.5274   2.0495   3.5604
     3.8122   4.5257   5.7270   6.5264   6.6154  10.6111  11.8488  13.3298
    15.7932  16.6860  17.2934

          k =-0.2143 0.0714 0.2143 (   845 PWs)   bands (ev):

   -10.0665  -5.7355  -3.8589  -2.1876  -0.1530   0.9529   2.0000   3.2777
     4.1375   4.3664   5.6782   6.5104   7.0700  10.9383  11.7995  12.7995
    15.7777  16.7765  17.3813

          k = 0.2143-0.0714 0.3571 (   854 PWs)   bands (ev):

    -9.5839  -6.2760  -4.5199  -1.5861  -0.5701   1.4133   1.9916   3.0783
[...]
     estimated scf accuracy    <          2.1E-09 Ry

     The total energy is the sum of the following terms:

     one-electron contribution =      13.34847464 Ry
     hartree contribution      =      12.19553977 Ry
     xc contribution           =     -25.72645680 Ry
     ewald contribution        =     -87.87135646 Ry
     smearing contrib. (-TS)   =      -0.00108192 Ry

     convergence has been achieved in   6 iterations

     Forces acting on atoms (cartesian axes, Ry/au):

     atom    1 type  1   force =    -0.00008979    0.00022567   -0.00008979
     atom    2 type  1   force =    -0.00001586   -0.00001586    0.00024789
     atom    3 type  1   force =     0.00024789   -0.00001586   -0.00001586
     atom    4 type  1   force =    -0.00001586    0.00024789   -0.00001586
     atom    5 type  1   force =     0.00022567   -0.00008979   -0.00008979
     atom    6 type  1   force =    -0.00008979   -0.00008979    0.00022567
     atom    7 type  2   force =    -0.00026226   -0.00026226   -0.00026226

     Total force =     0.000770     Total SCF correction =     0.000080
     SCF correction compared to forces is large: reduce conv_thr to get better values


     Computing stress (Cartesian axis) and pressure

          total   stress  (Ry/bohr**3)                   (kbar)     P= -168.62
  -0.00114629   0.00105539   0.00105539       -168.62    155.25    155.25
   0.00105539  -0.00114629   0.00105539        155.25   -168.62    155.25
   0.00105539   0.00105539  -0.00114629        155.25    155.25   -168.62


     number of scf cycles    =   6
     number of bfgs steps    =   5

     energy   old            =     -88.0545862121 Ry
     energy   new            =     -88.0548807711 Ry

     CASE: energy  _new < energy  _old

     new trust radius        =       0.0018002233 bohr
     new conv_thr            =       0.0000000003 Ry


ATOMIC_POSITIONS (alat)
C        0.233430127   0.767691063   0.233430127
C       -0.000247263  -0.000247263   0.510937916
C        0.510937916  -0.000247263  -0.000247263
C       -0.000247263   0.510937916  -0.000247263
C        0.767691063   0.233430127   0.233430127
C        0.233430127   0.233430127   0.767691063
N        0.755005293   0.755005293   0.755005293



     Writing output data file NV.save/
     NEW-OLD atomic charge density approx. for the potential

     total cpu time spent up to now is       86.7 secs

     Self-consistent Calculation

     iteration #  1     ecut=    30.00 Ry     beta= 0.70
     Davidson diagonalization with overlap
     ethr =  1.00E-06,  avg # of iterations =  2.0

     Threshold (ethr) on eigenvalues was too large:
     Diagonalizing with lowered threshold

     Davidson diagonalization with overlap
     ethr =  3.01E-09,  avg # of iterations =  3.0

     total cpu time spent up to now is       90.7 secs

     total energy              =     -88.05488182 Ry
     Harris-Foulkes estimate   =     -88.05488218 Ry
     estimated scf accuracy    <       0.00000081 Ry

     iteration #  2     ecut=    30.00 Ry     beta= 0.70
     Davidson diagonalization with overlap
     ethr =  2.80E-09,  avg # of iterations =  2.0

     total cpu time spent up to now is       92.3 secs

     total energy              =     -88.05488186 Ry
     Harris-Foulkes estimate   =     -88.05488201 Ry
     estimated scf accuracy    <       0.00000025 Ry

     iteration #  3     ecut=    30.00 Ry     beta= 0.70
     Davidson diagonalization with overlap
     ethr =  8.71E-10,  avg # of iterations =  2.8

     total cpu time spent up to now is       94.1 secs

     total energy              =     -88.05488192 Ry
     Harris-Foulkes estimate   =     -88.05488200 Ry
     estimated scf accuracy    <       0.00000019 Ry

     iteration #  4     ecut=    30.00 Ry     beta= 0.70
     Davidson diagonalization with overlap
     ethr =  6.40E-10,  avg # of iterations =  2.0

     total cpu time spent up to now is       95.5 secs

     total energy              =     -88.05488196 Ry
     Harris-Foulkes estimate   =     -88.05488196 Ry
     estimated scf accuracy    <          2.5E-09 Ry

     iteration #  5     ecut=    30.00 Ry     beta= 0.70
     Davidson diagonalization with overlap
     ethr =  8.79E-12,  avg # of iterations =  2.2

     total cpu time spent up to now is       97.9 secs

     End of self-consistent calculation

          k = 0.0714 0.0714 0.0714 (   844 PWs)   bands (ev):

   -10.6583  -4.2696  -2.9988  -2.9988  -0.5675  -0.5675   3.4702   3.4702
     4.6229   4.7955   5.6462   6.2562   6.2562  11.7501  13.4523  13.4523
    14.4999  15.7739  15.7739

          k = 0.0714 0.0714 0.2143 (   844 PWs)   bands (ev):

   -10.3668  -5.1720  -3.3714  -2.7998  -0.4292   0.7707   2.9020   3.2622
     4.5773   4.7555   5.7360   5.8966   6.0931  10.9710  12.9792  13.1281
    15.1876  16.2001  16.8218

          k = 0.0714 0.0714 0.3571 (   848 PWs)   bands (ev):

    -9.8602  -6.4866  -3.0796  -2.5095  -0.2481   1.7097   2.3102   2.9068
     4.1425   4.1496   5.6566   5.7726   7.2863   9.9930  12.2676  12.4279
    15.6527  17.4971  18.2169

          k = 0.0714 0.0714-0.5000 (   842 PWs)   bands (ev):

    -9.5056  -7.1633  -2.8197  -2.3621  -0.1616   1.8611   2.0982   2.7199
     3.8046   3.9289   5.5453   5.8377   8.7779   9.1582  11.4800  12.1920
    15.7168  17.8054  19.7484

          k = 0.0714 0.2143 0.2143 (   845 PWs)   bands (ev):

   -10.0835  -5.0313  -4.5615  -2.7889   0.0997   1.4823   2.1990   3.4677
     3.9876   4.9330   5.3719   6.2279   6.4815  10.0471  12.5264  13.3121
    15.7691  16.7137  16.9909

          k = 0.0714 0.2143 0.3571 (   854 PWs)   bands (ev):

    -9.5878  -6.1977  -4.3485  -2.5328   0.0655   1.5747   2.0113   3.2238
     4.1163   4.6542   5.3068   6.0814   7.7069   9.1412  11.9629  12.8618
    16.5436  17.3800  18.4928

          k = 0.0714 0.2143-0.5000 (   842 PWs)   bands (ev):

    -9.2303  -6.9245  -4.0106  -2.4074   0.0083   1.2912   2.0046   2.9671
     4.2891   4.5654   5.2591   6.0718   8.3982   9.2278  11.4851  12.2668
    16.6720  18.5444  19.2876

          k = 0.0714 0.3571 0.3571 (   844 PWs)   bands (ev):

    -9.1119  -5.8890  -5.5590  -2.5374  -0.1833   1.8299   1.9204   2.7405
     4.4057   4.4664   5.4922   6.7692   8.1024   8.6339  11.5938  12.9863
    17.1225  18.2564  18.8070

          k = 0.0714 0.3571-0.5000 (   844 PWs)   bands (ev):

    -8.7647  -6.5494  -5.2796  -2.6708  -0.0635   1.5276   1.9560   2.6122
     4.0288   4.6907   5.6856   7.1043   7.7816   9.2698  11.5906  12.5224
    17.9188  18.3257  19.0931

          k = 0.0714-0.5000-0.5000 (   856 PWs)   bands (ev):

    -8.4571  -6.3358  -5.8970  -2.9119   0.3205   1.3386   1.8589   2.3623
     4.0487   4.4919   6.1370   7.4763   7.5683   9.3664  11.5407  12.7270
    17.7903  18.5421  19.6880

          k = 0.2143 0.2143 0.2143 (   844 PWs)   bands (ev):

    -9.8102  -4.7307  -4.3376  -4.3376   0.9512   0.9512   2.7112   3.0981
     3.0981   5.5936   6.0760   6.0760   6.8494   8.9780  13.0279  13.0279
    16.0153  16.9751  16.9751

          k = 0.2143 0.2143 0.3571 (   853 PWs)   bands (ev):

    -9.3288  -5.8916  -4.0737  -3.9981   0.1747   0.7726   2.1173   3.1261
     4.3004   5.6731   5.8842   6.1462   7.5220   8.5281  12.7307  12.7556
    16.6883  17.4337  18.0306

          k = 0.2143 0.2143-0.5000 (   852 PWs)   bands (ev):

    -8.9716  -6.6745  -3.8153  -3.5648  -0.1812   0.2406   2.1214   3.2139
     4.6850   5.3428   5.7323   6.4501   7.3025   9.6277  11.8270  12.6390
    16.8339  18.6352  19.7181

          k = 0.2143 0.3571 0.3571 (   846 PWs)   bands (ev):

    -8.8737  -5.5075  -5.3245  -3.6503  -0.5574   0.6356   1.0346   3.8756
     5.1715   5.6843   6.0594   6.7484   6.7924   9.1461  12.5733  13.0098
    17.1042  17.9499  18.1465

          k = 0.2143 0.3571-0.5000 (   854 PWs)   bands (ev):

    -8.5327  -6.2762  -4.9925  -3.3308  -0.9070   0.1379   0.9669   4.0462
     5.2349   5.8153   6.0413   6.3780   7.2010  10.0829  12.2191  12.8101
    17.5839  18.2403  19.0955

          k = 0.2143-0.5000-0.5000 (   856 PWs)   bands (ev):

    -8.2329  -6.0589  -5.6599  -3.1169  -1.0400   0.0162   0.4417   4.1302
     5.5361   5.7508   6.0003   6.3760   7.6334  10.5698  12.0693  12.9159
    17.7695  18.5581  19.1438

          k = 0.3571 0.3571 0.3571 (   850 PWs)   bands (ev):

    -8.4583  -4.9625  -4.9625  -4.8751  -0.5064  -0.5064  -0.2354   5.4333
     5.4333   5.6969   6.4562   6.4562   7.1883   9.8567  13.1009  13.1009
    17.0835  18.0579  18.0579

          k = 0.3571 0.3571-0.5000 (   866 PWs)   bands (ev):

    -8.1482  -5.8300  -4.7618  -4.1649  -1.0946  -0.9759  -0.2821   5.2923
     5.5093   5.7821   6.3917   6.8506   7.5680  10.6789  12.8044  13.1606
    17.3884  18.1760  18.7813

          k = 0.3571-0.5000-0.5000 (   876 PWs)   bands (ev):

    -7.8926  -5.5557  -5.2910  -3.8429  -1.6276  -1.0454  -0.7743   4.8874
     5.6219   6.1489   6.7673   7.0597   7.8972  11.1545  12.9401  13.1925
    17.4725  18.4562  18.4641

          k =-0.5000-0.5000-0.5000 (   840 PWs)   bands (ev):

    -7.7072  -5.0827  -5.0827  -4.4865  -1.9029  -1.2772  -1.2772   4.4692
     6.2208   6.2208   7.2402   7.2402   8.1719  11.3416  13.3367  13.3367
    17.1786  18.3305  18.3305

          k = 0.0714-0.0714 0.0714 (   844 PWs)   bands (ev):

   -10.6537  -4.5809  -3.0036  -2.0897  -1.2433  -0.5571   3.3417   3.6412
     4.3060   4.7827   5.9194   6.2449   6.4104  11.9937  13.0577  13.4876
    14.5428  15.7583  15.8399

          k = 0.0714-0.0714 0.2143 (   844 PWs)   bands (ev):

   -10.3574  -5.3733  -3.4739  -1.6597  -1.2547   0.6561   2.7255   3.5068
     4.0773   4.7890   5.8013   6.1492   6.3505  11.3947  12.4156  13.1211
    15.1786  16.2743  16.9444

          k =-0.2143 0.0714 0.0714 (   844 PWs)   bands (ev):

   -10.3530  -5.4985  -2.8129  -2.6115  -0.4001   0.1591   2.9107   3.1079
     4.0704   5.1127   5.5485   6.2074   6.5507  11.6662  12.1554  13.0103
    15.0321  16.5821  16.8728

          k = 0.0714-0.0714 0.3571 (   848 PWs)   bands (ev):

    -9.8472  -6.5591  -3.3643  -1.3625  -1.0451   1.6742   2.1274   3.1356
     3.5810   4.3838   5.6455   6.0107   7.4057  10.4257  11.7993  12.3832
    15.6311  17.5349  18.2617

          k =-0.3571 0.0714 0.0714 (   848 PWs)   bands (ev):

    -9.8401  -6.6200  -2.7294  -2.5236  -0.2147   1.4072   2.4017   2.4140
     3.8662   4.6971   5.4598   5.9628   7.5557  10.6984  11.3977  12.4366
    15.4532  17.6923  18.7974

          k = 0.0714-0.0714-0.5000 (   842 PWs)   bands (ev):

    -9.5019  -7.1667  -3.2588  -1.2672  -0.8884   1.7114   2.2355   3.0767
     3.3293   3.9972   5.4842   6.0379   8.5856   9.4697  11.5397  11.9956
    15.7958  17.7310  19.7713

          k = 0.2143-0.0714 0.2143 (   845 PWs)   bands (ev):

   -10.0687  -5.3339  -4.5646  -1.5585  -0.9517   1.5349   2.0579   3.5621
     3.8076   4.5220   5.6984   6.5241   6.6092  10.5875  11.8674  13.3625
    15.7712  16.6846  17.2774

          k =-0.2143 0.0714 0.2143 (   845 PWs)   bands (ev):

   -10.0549  -5.7445  -3.8607  -2.1976  -0.1642   0.9466   2.0170   3.2911
     4.1409   4.3620   5.6565   6.4928   7.0550  10.9555  11.7721  12.8290
    15.7455  16.7802  17.3783

          k = 0.2143-0.0714 0.3571 (   854 PWs)   bands (ev):

    -9.5682  -6.2890  -4.5236  -1.6008  -0.5752   1.4241   2.0014   3.0760
     3.9031   4.6674   5.4657   6.3516   7.6123   9.8736  11.3293  12.8775
    16.6030  17.3791  18.5961

          k =-0.2143 0.0714 0.3571 (   854 PWs)   bands (ev):

    -9.5480  -6.4759  -4.1963  -1.8862  -0.2309   1.2426   1.7785   3.3863
     3.8055   4.2400   5.6792   6.3889   7.7877  10.1966  11.5029  12.2365
    16.5446  17.7083  18.5842

          k =-0.3571 0.2143 0.0714 (   854 PWs)   bands (ev):

    -9.5462  -6.5176  -3.9612  -2.3357   0.1282   1.2723   1.6830   3.0551
     4.1671   4.4400   5.3307   6.4423   7.8218  10.2798  11.2393  12.4051
    16.3009  17.9442  18.6930

          k = 0.2143-0.0714-0.5000 (   842 PWs)   bands (ev):

    -9.2189  -6.9364  -4.2583  -1.7440  -0.2861   1.0814   1.9664   3.0182
     4.0269   4.4720   5.6899   6.0696   8.2094   9.7742  11.2586  12.1284
    16.8646  18.4078  19.1744

          k = 0.3571-0.0714 0.3571 (   844 PWs)   bands (ev):

    -9.0865  -6.0461  -5.5605  -2.1290  -0.1013   1.3095   1.9922   2.4326
     4.2411   4.8279   5.5646   6.8766   7.7299   9.6286  10.9776  13.0047
    17.1026  18.2017  19.2353

          k =-0.3571 0.0714 0.3571 (   844 PWs)   bands (ev):

    -9.0535  -6.5013  -4.9564  -2.3899   0.0085   1.3295   1.6740   2.9656
     3.9690   4.7604   5.3185   7.0586   7.8207   9.7931  11.5469  12.1784
    17.5597  18.0559  19.2696

          k = 0.3571-0.0714-0.5000 (   844 PWs)   bands (ev):

    -8.7487  -6.5759  -5.3504  -2.5024   0.2143   1.0918   1.9963   2.3791
     4.1891   4.6310   5.8340   7.0993   7.7071   9.6370  11.3265  12.5123
    17.9825  18.3350  19.1054

          k = 0.2143-0.2143 0.2143 (   844 PWs)   bands (ev):

    -9.7650  -5.7435  -4.3462  -2.5835  -0.0161   1.0557   2.2773   3.0420
     3.1130   4.8327   6.3023   6.7913   7.2243  10.0519  11.8035  13.0930
    15.9720  16.9512  17.5742

          k = 0.2143-0.2143 0.3571 (   853 PWs)   bands (ev):

    -9.2691  -6.2434  -4.6675  -2.3164  -0.5526   0.8380   1.9876   2.6002
     4.1231   5.1566   6.3330   6.7464   7.3136  10.0132  11.5328  12.7785
    16.8327  17.4607  18.4995

          k =-0.3571 0.2143 0.2143 (   853 PWs)   bands (ev):

    -9.2635  -6.3909  -4.0076  -3.1732   0.1692   0.2371   2.1295   3.1353
     3.7473   5.0826   6.2649   6.7249   7.3714  10.0896  11.4410  12.7791
    16.4212  18.0976  18.4223

          k = 0.2143-0.2143-0.5000 (   852 PWs)   bands (ev):

    -8.9373  -6.7170  -4.6193  -2.0668  -0.8654   0.4671   1.9701   2.5997
     4.6624   5.3836   6.0668   6.6020   7.2481  10.6050  11.1661  12.3889
    17.2536  18.5661  18.9196

          k = 0.3571-0.2143 0.3571 (   846 PWs)   bands (ev):

    -8.7974  -6.0574  -5.3285  -2.4925  -1.0014   0.6937   0.7799   3.1996
     4.8899   5.9670   6.2114   6.6457   7.1751  10.5914  11.2820  13.0413
    17.1581  17.8739  18.9188

          k =-0.3571 0.2143 0.3571 (   846 PWs)   bands (ev):

    -8.7883  -6.3065  -4.8379  -2.9617  -0.7596   0.2391   1.1950   3.5604
     4.7277   5.4640   6.3948   6.7053   7.2244  10.4396  11.7118  12.7245
    17.2797  18.0045  18.8583

          k = 0.3571-0.2143-0.5000 (   854 PWs)   bands (ev):

    -8.4853  -6.3662  -5.2471  -2.6780  -1.0606   0.0915   0.8360   3.5399
     5.3441   5.7243   6.3114   6.4717   7.2567  10.9095  11.4917  12.7452
    17.9529  18.1847  18.7689

          k = 0.3571-0.3571 0.3571 (   850 PWs)   bands (ev):

    -8.3540  -6.0553  -4.9670  -3.3750  -1.2162  -0.4781  -0.0387   4.7393
     5.3125   5.6653   6.2593   6.9903   7.5391  11.0274  12.0094  13.1150
    17.3196  18.0785  18.7612

          k = 0.3571-0.3571-0.5000 (   866 PWs)   bands (ev):

    -8.0871  -5.9991  -5.1685  -3.2956  -1.5777  -0.7363  -0.3835   4.9529
     5.2867   5.8228   6.7412   6.8922   7.6541  11.3000  12.2957  13.0678
    17.8483  18.1059  18.3976

     the Fermi energy is    11.7007 ev

!    total energy              =     -88.05488196 Ry
     Harris-Foulkes estimate   =     -88.05488196 Ry
     estimated scf accuracy    <          1.2E-10 Ry

     The total energy is the sum of the following terms:

     one-electron contribution =      13.34086759 Ry
     hartree contribution      =      12.19898083 Ry
     xc contribution           =     -25.72682798 Ry
     ewald contribution        =     -87.86681817 Ry
     smearing contrib. (-TS)   =      -0.00108423 Ry

     convergence has been achieved in   5 iterations

     Forces acting on atoms (cartesian axes, Ry/au):

     atom    1 type  1   force =    -0.00000012    0.00001421   -0.00000012
     atom    2 type  1   force =    -0.00001402   -0.00001402    0.00000363
     atom    3 type  1   force =     0.00000363   -0.00001402   -0.00001402
     atom    4 type  1   force =    -0.00001402    0.00000363   -0.00001402
     atom    5 type  1   force =     0.00001421   -0.00000012   -0.00000012
     atom    6 type  1   force =    -0.00000012   -0.00000012    0.00001421
     atom    7 type  2   force =     0.00001044    0.00001044    0.00001044

     Total force =     0.000046     Total SCF correction =     0.000019
     SCF correction compared to forces is large: reduce conv_thr to get better values


     Computing stress (Cartesian axis) and pressure

          total   stress  (Ry/bohr**3)                   (kbar)     P= -168.37
  -0.00114453   0.00105412   0.00105412       -168.37    155.07    155.07
   0.00105412  -0.00114453   0.00105412        155.07   -168.37    155.07
   0.00105412   0.00105412  -0.00114453        155.07    155.07   -168.37


     bfgs converged in   7 scf cycles and   6 bfgs steps
     (criteria: energy <  1.0E-05 Ry, force <  1.0E-04 Ry/Bohr)

     End of BFGS Geometry Optimization

     Final energy   =     -88.0548819579 Ry
Begin final coordinates

ATOMIC_POSITIONS (alat)
C        0.233430127   0.767691063   0.233430127
C       -0.000247263  -0.000247263   0.510937916
C        0.510937916  -0.000247263  -0.000247263
C       -0.000247263   0.510937916  -0.000247263
C        0.767691063   0.233430127   0.233430127
C        0.233430127   0.233430127   0.767691063
N        0.755005293   0.755005293   0.755005293
End final coordinates



     Writing output data file NV.save/

     init_run     :      0.88s CPU      0.88s WALL (       1 calls)
     electrons    :     90.98s CPU     91.44s WALL (       7 calls)
     update_pot   :      0.05s CPU      0.05s WALL (       6 calls)
     forces       :      2.18s CPU      2.20s WALL (       7 calls)
     stress       :      3.92s CPU      3.92s WALL (       7 calls)

     Called by init_run:
     wfcinit      :      0.67s CPU      0.67s WALL (       1 calls)
     potinit      :      0.01s CPU      0.01s WALL (       1 calls)
     hinit0       :      0.18s CPU      0.18s WALL (       1 calls)

     Called by electrons:
     c_bands      :     81.57s CPU     81.99s WALL (      46 calls)
     sum_band     :      8.74s CPU      8.78s WALL (      46 calls)
     v_of_rho     :      0.07s CPU      0.07s WALL (      52 calls)
     newd         :      0.58s CPU      0.58s WALL (      52 calls)
     mix_rho      :      0.05s CPU      0.05s WALL (      46 calls)

     Called by c_bands:
     init_us_2    :      1.39s CPU      1.41s WALL (    4708 calls)
     cegterg      :     78.60s CPU     78.99s WALL (    2024 calls)

     Called by sum_band:
     sum_band:bec :      0.05s CPU      0.05s WALL (    2024 calls)
     addusdens    :      0.43s CPU      0.43s WALL (      46 calls)

     Called by *egterg:
     h_psi        :     43.28s CPU     43.51s WALL (    7979 calls)
     s_psi        :      8.45s CPU      8.50s WALL (    7979 calls)
     g_psi        :      0.40s CPU      0.40s WALL (    5911 calls)
     cdiaghg      :      6.12s CPU      6.15s WALL (    7627 calls)

     Called by h_psi:
     h_psi:pot    :     43.09s CPU     43.32s WALL (    7979 calls)
     h_psi:calbec :      8.51s CPU      8.56s WALL (    7979 calls)
     vloc_psi     :     26.04s CPU     26.17s WALL (    7979 calls)
     add_vuspsi   :      8.51s CPU      8.57s WALL (    7979 calls)

     General routines
     calbec       :     13.46s CPU     13.55s WALL (   11543 calls)
     fft          :      0.13s CPU      0.13s WALL (     340 calls)
     ffts         :      0.02s CPU      0.02s WALL (      98 calls)
     fftw         :     25.61s CPU     25.76s WALL (  260866 calls)
     interpolate  :      0.04s CPU      0.04s WALL (      52 calls)

     Parallel routines

     PWSCF        :   1m38.29s CPU   1m38.79s WALL


   This run was terminated on:   4:14:52  14Dec2022            

=------------------------------------------------------------------------------=
   JOB DONE.
=------------------------------------------------------------------------------=
