
     Program PWSCF v.6.4.1 starts on 14Dec2022 at  4:54:11 

     This program is part of the open-source Quantum ESPRESSO suite
     for quantum simulation of materials; please cite
         "P. Giannozzi et al., J. Phys.:Condens. Matter 21 395502 (2009);
         "P. Giannozzi et al., J. Phys.:Condens. Matter 29 465901 (2017);
          URL http://www.quantum-espresso.org", 
     in publications or presentations arising from this work. More details at
     http://www.quantum-espresso.org/quote

     Parallel version (MPI), running on     1 processors

     MPI processes distributed on     1 nodes
     Waiting for input...
     Reading input from standard input

     Current dimensions of program PWSCF are:
     Max number of different atomic species (ntypx) = 10
     Max number of k-points (npk) =  40000
     Max angular momentum in pseudopotentials (lmaxx) =  3

     Subspace diagonalization in iterative solution of the eigenvalue problem:
     a serial algorithm will be used


     G-vector sticks info
     --------------------
     sticks:   dense  smooth     PW     G-vecs:    dense   smooth      PW
     Sum         545     437    145                 9459     6859    1309



     bravais-lattice index     =            1
     lattice parameter (alat)  =       6.7407  a.u.
     unit-cell volume          =     306.2710 (a.u.)^3
     number of atoms/cell      =            7
     number of atomic types    =            2
     number of electrons       =        29.00
     number of Kohn-Sham states=           19
     kinetic-energy cutoff     =      30.0000  Ry
     charge density cutoff     =     150.0000  Ry
     convergence threshold     =      1.0E-08
     mixing beta               =       0.7000
     number of iterations used =            8  plain     mixing
     Exchange-correlation      = SLA PZ NOGX NOGC ( 1  1  0  0 0 0)

     celldm(1)=   6.740653  celldm(2)=   0.000000  celldm(3)=   0.000000
     celldm(4)=   0.000000  celldm(5)=   0.000000  celldm(6)=   0.000000

     crystal axes: (cart. coord. in units of alat)
               a(1) = (   1.000000   0.000000   0.000000 )  
               a(2) = (   0.000000   1.000000   0.000000 )  
               a(3) = (   0.000000   0.000000   1.000000 )  

     reciprocal axes: (cart. coord. in units 2 pi/alat)
               b(1) = (  1.000000  0.000000  0.000000 )  
               b(2) = (  0.000000  1.000000  0.000000 )  
               b(3) = (  0.000000  0.000000  1.000000 )  


     PseudoPot. # 1 for C  read from file:
     ./C.pz-van_ak.UPF
     MD5 check sum: d40b4001ce20bbb1180eafeb54b8064c
     Pseudo is Ultrasoft, Zval =  4.0
     Generated by new atomic code, or converted to UPF format
     Using radial grid of  721 points,  4 beta functions with: 
                l(1) =   0
                l(2) =   0
                l(3) =   1
                l(4) =   1
     Q(r) pseudized with  8 coefficients,  rinner =    0.800   0.800   0.800


     PseudoPot. # 2 for N  read from file:
     ./N.pz-van_ak.UPF
     MD5 check sum: 6092c7bba5830f51dd79c833739b857d
     Pseudo is Ultrasoft, Zval =  5.0
     Generated by new atomic code, or converted to UPF format
     Using radial grid of  729 points,  4 beta functions with: 
                l(1) =   0
                l(2) =   0
                l(3) =   1
                l(4) =   1
     Q(r) pseudized with  8 coefficients,  rinner =    0.800   0.800   0.800


     atomic species   valence    mass     pseudopotential
        C              4.00    12.01070     C ( 1.00)
        N              5.00    14.00670     N ( 1.00)

      6 Sym. Ops. (no inversion) found



   Cartesian axes

     site n.     atom                  positions (alat units)
         1           C   tau(   1) = (   0.2334301   0.7676911   0.2334301  )
         2           C   tau(   2) = (  -0.0002473  -0.0002473   0.5109379  )
         3           C   tau(   3) = (   0.5109379  -0.0002473  -0.0002473  )
         4           C   tau(   4) = (  -0.0002473   0.5109379  -0.0002473  )
         5           C   tau(   5) = (   0.7676911   0.2334301   0.2334301  )
         6           C   tau(   6) = (   0.2334301   0.2334301   0.7676911  )
         7           N   tau(   7) = (   0.7550053   0.7550053   0.7550053  )

     number of k points=    44  gaussian smearing, width (Ry)=  0.0100
                       cart. coord. in units 2pi/alat
        k(    1) = (   0.0714286   0.0714286   0.0714286), wk =   0.0116618
        k(    2) = (   0.0714286   0.0714286   0.2142857), wk =   0.0349854
        k(    3) = (   0.0714286   0.0714286   0.3571429), wk =   0.0349854
        k(    4) = (   0.0714286   0.0714286  -0.5000000), wk =   0.0349854
        k(    5) = (   0.0714286   0.2142857   0.2142857), wk =   0.0349854
        k(    6) = (   0.0714286   0.2142857   0.3571429), wk =   0.0699708
        k(    7) = (   0.0714286   0.2142857  -0.5000000), wk =   0.0699708
        k(    8) = (   0.0714286   0.3571429   0.3571429), wk =   0.0349854
        k(    9) = (   0.0714286   0.3571429  -0.5000000), wk =   0.0699708
        k(   10) = (   0.0714286  -0.5000000  -0.5000000), wk =   0.0349854
        k(   11) = (   0.2142857   0.2142857   0.2142857), wk =   0.0116618
        k(   12) = (   0.2142857   0.2142857   0.3571429), wk =   0.0349854
        k(   13) = (   0.2142857   0.2142857  -0.5000000), wk =   0.0349854
        k(   14) = (   0.2142857   0.3571429   0.3571429), wk =   0.0349854
        k(   15) = (   0.2142857   0.3571429  -0.5000000), wk =   0.0699708
        k(   16) = (   0.2142857  -0.5000000  -0.5000000), wk =   0.0349854
        k(   17) = (   0.3571429   0.3571429   0.3571429), wk =   0.0116618
        k(   18) = (   0.3571429   0.3571429  -0.5000000), wk =   0.0349854
        k(   19) = (   0.3571429  -0.5000000  -0.5000000), wk =   0.0349854
        k(   20) = (  -0.5000000  -0.5000000  -0.5000000), wk =   0.0058309
        k(   21) = (   0.0714286  -0.0714286   0.0714286), wk =   0.0349854
        k(   22) = (   0.0714286  -0.0714286   0.2142857), wk =   0.0699708
        k(   23) = (  -0.2142857   0.0714286   0.0714286), wk =   0.0349854
        k(   24) = (   0.0714286  -0.0714286   0.3571429), wk =   0.0699708
        k(   25) = (  -0.3571429   0.0714286   0.0714286), wk =   0.0349854
        k(   26) = (   0.0714286  -0.0714286  -0.5000000), wk =   0.0349854
        k(   27) = (   0.2142857  -0.0714286   0.2142857), wk =   0.0349854
        k(   28) = (  -0.2142857   0.0714286   0.2142857), wk =   0.0699708
        k(   29) = (   0.2142857  -0.0714286   0.3571429), wk =   0.0699708
        k(   30) = (  -0.2142857   0.0714286   0.3571429), wk =   0.0699708
        k(   31) = (  -0.3571429   0.2142857   0.0714286), wk =   0.0699708
        k(   32) = (   0.2142857  -0.0714286  -0.5000000), wk =   0.0699708
        k(   33) = (   0.3571429  -0.0714286   0.3571429), wk =   0.0349854
        k(   34) = (  -0.3571429   0.0714286   0.3571429), wk =   0.0699708
        k(   35) = (   0.3571429  -0.0714286  -0.5000000), wk =   0.0699708
        k(   36) = (   0.2142857  -0.2142857   0.2142857), wk =   0.0349854
        k(   37) = (   0.2142857  -0.2142857   0.3571429), wk =   0.0699708
        k(   38) = (  -0.3571429   0.2142857   0.2142857), wk =   0.0349854
        k(   39) = (   0.2142857  -0.2142857  -0.5000000), wk =   0.0349854
        k(   40) = (   0.3571429  -0.2142857   0.3571429), wk =   0.0349854
        k(   41) = (  -0.3571429   0.2142857   0.3571429), wk =   0.0699708
        k(   42) = (   0.3571429  -0.2142857  -0.5000000), wk =   0.0699708
        k(   43) = (   0.3571429  -0.3571429   0.3571429), wk =   0.0349854
        k(   44) = (   0.3571429  -0.3571429  -0.5000000), wk =   0.0349854

     Dense  grid:     9459 G-vectors     FFT dimensions: (  27,  27,  27)

     Smooth grid:     6859 G-vectors     FFT dimensions: (  24,  24,  24)

     Estimated max dynamical RAM per process >      27.00 MB

     Initial potential from superposition of free atoms

     starting charge   28.99979, renormalised to   29.00000
     Starting wfcs are   28 randomized atomic wfcs

     total cpu time spent up to now is        0.9 secs

     Self-consistent Calculation

     iteration #  1     ecut=    30.00 Ry     beta= 0.70
     Davidson diagonalization with overlap
     ethr =  1.00E-02,  avg # of iterations =  2.1

     total cpu time spent up to now is        2.5 secs

     total energy              =     -88.00698166 Ry
     Harris-Foulkes estimate   =     -88.20220991 Ry
     estimated scf accuracy    <       0.36550736 Ry

     iteration #  2     ecut=    30.00 Ry     beta= 0.70
     Davidson diagonalization with overlap
     ethr =  1.26E-03,  avg # of iterations =  2.0

     total cpu time spent up to now is        3.9 secs

     total energy              =     -88.03594747 Ry
     Harris-Foulkes estimate   =     -88.06382679 Ry
     estimated scf accuracy    <       0.04083885 Ry

     iteration #  3     ecut=    30.00 Ry     beta= 0.70
     Davidson diagonalization with overlap
     ethr =  1.41E-04,  avg # of iterations =  4.2

     total cpu time spent up to now is        6.1 secs

     total energy              =     -88.04368456 Ry
     Harris-Foulkes estimate   =     -88.06976533 Ry
     estimated scf accuracy    <       0.06237687 Ry

     iteration #  4     ecut=    30.00 Ry     beta= 0.70
     Davidson diagonalization with overlap
     ethr =  1.41E-04,  avg # of iterations =  2.3

     total cpu time spent up to now is        8.1 secs

     total energy              =     -88.05472459 Ry
     Harris-Foulkes estimate   =     -88.05481005 Ry
     estimated scf accuracy    <       0.00024983 Ry

     iteration #  5     ecut=    30.00 Ry     beta= 0.70
     Davidson diagonalization with overlap
     ethr =  8.61E-07,  avg # of iterations =  5.3

     total cpu time spent up to now is       10.8 secs

     total energy              =     -88.05486685 Ry
     Harris-Foulkes estimate   =     -88.05490641 Ry
     estimated scf accuracy    <       0.00007846 Ry

     iteration #  6     ecut=    30.00 Ry     beta= 0.70
     Davidson diagonalization with overlap
     ethr =  2.71E-07,  avg # of iterations =  2.0

     total cpu time spent up to now is       12.4 secs

     total energy              =     -88.05488146 Ry
     Harris-Foulkes estimate   =     -88.05488336 Ry
     estimated scf accuracy    <       0.00000323 Ry

     iteration #  7     ecut=    30.00 Ry     beta= 0.70
     Davidson diagonalization with overlap
     ethr =  1.11E-08,  avg # of iterations =  2.0

     total cpu time spent up to now is       13.8 secs

     total energy              =     -88.05488193 Ry
     Harris-Foulkes estimate   =     -88.05488195 Ry
     estimated scf accuracy    <       0.00000005 Ry

     iteration #  8     ecut=    30.00 Ry     beta= 0.70
     Davidson diagonalization with overlap
     ethr =  1.72E-10,  avg # of iterations =  3.0

     total cpu time spent up to now is       15.7 secs

     total energy              =     -88.05488196 Ry
     Harris-Foulkes estimate   =     -88.05488196 Ry
     estimated scf accuracy    <       0.00000001 Ry

     iteration #  9     ecut=    30.00 Ry     beta= 0.70
     Davidson diagonalization with overlap
     ethr =  4.18E-11,  avg # of iterations =  2.0

     total cpu time spent up to now is       17.4 secs

     End of self-consistent calculation

          k = 0.0714 0.0714 0.0714 (   844 PWs)   bands (ev):

   -10.6583  -4.2696  -2.9988  -2.9988  -0.5675  -0.5675   3.4702   3.4702
     4.6229   4.7955   5.6462   6.2562   6.2562  11.7501  13.4523  13.4523
    14.4999  15.7739  15.7739

          k = 0.0714 0.0714 0.2143 (   844 PWs)   bands (ev):

   -10.3668  -5.1720  -3.3714  -2.7998  -0.4292   0.7707   2.9020   3.2622
     4.5773   4.7555   5.7360   5.8966   6.0931  10.9710  12.9793  13.1281
    15.1876  16.2001  16.8218

          k = 0.0714 0.0714 0.3571 (   848 PWs)   bands (ev):

    -9.8602  -6.4866  -3.0796  -2.5095  -0.2481   1.7097   2.3102   2.9068
     4.1425   4.1496   5.6567   5.7726   7.2863   9.9929  12.2676  12.4279
    15.6527  17.4971  18.2169

          k = 0.0714 0.0714-0.5000 (   842 PWs)   bands (ev):

    -9.5056  -7.1633  -2.8197  -2.3621  -0.1616   1.8610   2.0982   2.7199
     3.8046   3.9289   5.5454   5.8377   8.7778   9.1582  11.4800  12.1921
    15.7168  17.8054  19.7484

          k = 0.0714 0.2143 0.2143 (   845 PWs)   bands (ev):

   -10.0836  -5.0313  -4.5615  -2.7889   0.0997   1.4823   2.1990   3.4677
     3.9876   4.9330   5.3719   6.2279   6.4815  10.0471  12.5264  13.3121
    15.7691  16.7137  16.9909

          k = 0.0714 0.2143 0.3571 (   854 PWs)   bands (ev):

    -9.5878  -6.1977  -4.3485  -2.5328   0.0655   1.5747   2.0113   3.2238
     4.1163   4.6542   5.3068   6.0814   7.7069   9.1412  11.9629  12.8618
    16.5436  17.3800  18.4928

          k = 0.0714 0.2143-0.5000 (   842 PWs)   bands (ev):

    -9.2303  -6.9245  -4.0106  -2.4074   0.0083   1.2912   2.0046   2.9671
     4.2891   4.5654   5.2591   6.0718   8.3982   9.2278  11.4851  12.2668
    16.6720  18.5444  19.2876

          k = 0.0714 0.3571 0.3571 (   844 PWs)   bands (ev):

    -9.1119  -5.8890  -5.5590  -2.5374  -0.1833   1.8299   1.9204   2.7405
     4.4057   4.4664   5.4922   6.7692   8.1024   8.6339  11.5938  12.9863
    17.1225  18.2564  18.8070

          k = 0.0714 0.3571-0.5000 (   844 PWs)   bands (ev):

    -8.7647  -6.5494  -5.2796  -2.6708  -0.0635   1.5276   1.9560   2.6123
     4.0288   4.6907   5.6856   7.1043   7.7815   9.2698  11.5906  12.5225
    17.9188  18.3257  19.0931

          k = 0.0714-0.5000-0.5000 (   856 PWs)   bands (ev):

    -8.4571  -6.3358  -5.8970  -2.9119   0.3205   1.3386   1.8589   2.3623
     4.0487   4.4919   6.1370   7.4763   7.5683   9.3664  11.5407  12.7270
    17.7903  18.5421  19.6880

          k = 0.2143 0.2143 0.2143 (   844 PWs)   bands (ev):

    -9.8102  -4.7307  -4.3376  -4.3376   0.9512   0.9512   2.7112   3.0981
     3.0981   5.5936   6.0760   6.0760   6.8494   8.9780  13.0280  13.0280
    16.0153  16.9751  16.9751

          k = 0.2143 0.2143 0.3571 (   853 PWs)   bands (ev):

    -9.3288  -5.8916  -4.0737  -3.9981   0.1747   0.7726   2.1173   3.1261
     4.3004   5.6731   5.8841   6.1462   7.5220   8.5281  12.7307  12.7556
    16.6883  17.4337  18.0306

          k = 0.2143 0.2143-0.5000 (   852 PWs)   bands (ev):

    -8.9716  -6.6745  -3.8153  -3.5648  -0.1812   0.2406   2.1214   3.2139
     4.6850   5.3428   5.7323   6.4501   7.3025   9.6277  11.8270  12.6390
    16.8339  18.6352  19.7040

          k = 0.2143 0.3571 0.3571 (   846 PWs)   bands (ev):

    -8.8737  -5.5075  -5.3245  -3.6503  -0.5575   0.6355   1.0346   3.8756
     5.1715   5.6843   6.0594   6.7484   6.7924   9.1461  12.5733  13.0098
    17.1042  17.9499  18.1465

          k = 0.2143 0.3571-0.5000 (   854 PWs)   bands (ev):

    -8.5327  -6.2762  -4.9925  -3.3308  -0.9070   0.1379   0.9669   4.0462
     5.2349   5.8153   6.0413   6.3779   7.2010  10.0829  12.2191  12.8101
    17.5839  18.2403  19.0954

          k = 0.2143-0.5000-0.5000 (   856 PWs)   bands (ev):

    -8.2329  -6.0589  -5.6599  -3.1169  -1.0400   0.0162   0.4417   4.1302
     5.5361   5.7508   6.0003   6.3760   7.6334  10.5698  12.0693  12.9160
    17.7695  18.5581  19.1438

          k = 0.3571 0.3571 0.3571 (   850 PWs)   bands (ev):

    -8.4584  -4.9625  -4.9625  -4.8751  -0.5064  -0.5064  -0.2354   5.4333
     5.4333   5.6969   6.4562   6.4562   7.1883   9.8567  13.1010  13.1010
    17.0835  18.0579  18.0579

          k = 0.3571 0.3571-0.5000 (   866 PWs)   bands (ev):

    -8.1482  -5.8300  -4.7618  -4.1649  -1.0946  -0.9759  -0.2821   5.2923
     5.5093   5.7821   6.3917   6.8506   7.5680  10.6788  12.8044  13.1606
    17.3883  18.1760  18.7812

          k = 0.3571-0.5000-0.5000 (   876 PWs)   bands (ev):

    -7.8926  -5.5557  -5.2910  -3.8429  -1.6276  -1.0454  -0.7743   4.8874
     5.6219   6.1489   6.7673   7.0597   7.8972  11.1545  12.9401  13.1925
    17.4725  18.4562  18.4640

          k =-0.5000-0.5000-0.5000 (   840 PWs)   bands (ev):

    -7.7072  -5.0827  -5.0827  -4.4865  -1.9029  -1.2772  -1.2772   4.4692
     6.2208   6.2208   7.2402   7.2402   8.1719  11.3416  13.3368  13.3368
    17.1786  18.3305  18.3305

          k = 0.0714-0.0714 0.0714 (   844 PWs)   bands (ev):

   -10.6537  -4.5809  -3.0036  -2.0897  -1.2433  -0.5571   3.3416   3.6411
     4.3060   4.7827   5.9194   6.2449   6.4104  11.9937  13.0577  13.4877
    14.5428  15.7583  15.8399

          k = 0.0714-0.0714 0.2143 (   844 PWs)   bands (ev):

   -10.3574  -5.3733  -3.4739  -1.6597  -1.2547   0.6561   2.7255   3.5068
     4.0773   4.7890   5.8013   6.1492   6.3505  11.3947  12.4156  13.1211
    15.1785  16.2743  16.9444

          k =-0.2143 0.0714 0.0714 (   844 PWs)   bands (ev):

   -10.3530  -5.4985  -2.8129  -2.6115  -0.4001   0.1591   2.9107   3.1079
     4.0704   5.1127   5.5485   6.2074   6.5507  11.6662  12.1554  13.0103
    15.0321  16.5821  16.8728

          k = 0.0714-0.0714 0.3571 (   848 PWs)   bands (ev):

    -9.8472  -6.5591  -3.3643  -1.3625  -1.0451   1.6741   2.1274   3.1356
     3.5810   4.3838   5.6455   6.0107   7.4057  10.4257  11.7993  12.3832
    15.6311  17.5349  18.2617

          k =-0.3571 0.0714 0.0714 (   848 PWs)   bands (ev):

    -9.8401  -6.6200  -2.7294  -2.5236  -0.2147   1.4072   2.4017   2.4140
     3.8662   4.6971   5.4598   5.9628   7.5557  10.6984  11.3977  12.4366
    15.4532  17.6923  18.7974

          k = 0.0714-0.0714-0.5000 (   842 PWs)   bands (ev):

    -9.5019  -7.1667  -3.2588  -1.2672  -0.8883   1.7114   2.2355   3.0767
     3.3293   3.9972   5.4842   6.0379   8.5856   9.4697  11.5397  11.9956
    15.7958  17.7310  19.7713

          k = 0.2143-0.0714 0.2143 (   845 PWs)   bands (ev):

   -10.0687  -5.3339  -4.5646  -1.5585  -0.9517   1.5349   2.0579   3.5621
     3.8076   4.5220   5.6984   6.5241   6.6092  10.5875  11.8674  13.3625
    15.7712  16.6846  17.2774

          k =-0.2143 0.0714 0.2143 (   845 PWs)   bands (ev):

   -10.0550  -5.7445  -3.8607  -2.1976  -0.1642   0.9466   2.0170   3.2911
     4.1409   4.3620   5.6565   6.4928   7.0550  10.9555  11.7721  12.8290
    15.7455  16.7802  17.3783

          k = 0.2143-0.0714 0.3571 (   854 PWs)   bands (ev):

    -9.5682  -6.2891  -4.5236  -1.6008  -0.5752   1.4241   2.0014   3.0760
     3.9031   4.6674   5.4657   6.3516   7.6123   9.8736  11.3293  12.8775
    16.6030  17.3791  18.5960

          k =-0.2143 0.0714 0.3571 (   854 PWs)   bands (ev):

    -9.5480  -6.4759  -4.1963  -1.8862  -0.2309   1.2426   1.7785   3.3863
     3.8055   4.2400   5.6792   6.3889   7.7877  10.1966  11.5029  12.2365
    16.5446  17.7083  18.5841

          k =-0.3571 0.2143 0.0714 (   854 PWs)   bands (ev):

    -9.5462  -6.5176  -3.9612  -2.3357   0.1282   1.2723   1.6830   3.0551
     4.1671   4.4400   5.3307   6.4423   7.8218  10.2798  11.2393  12.4051
    16.3009  17.9442  18.6930

          k = 0.2143-0.0714-0.5000 (   842 PWs)   bands (ev):

    -9.2189  -6.9364  -4.2583  -1.7440  -0.2861   1.0814   1.9664   3.0182
     4.0268   4.4720   5.6899   6.0696   8.2094   9.7742  11.2586  12.1284
    16.8646  18.4078  19.1744

          k = 0.3571-0.0714 0.3571 (   844 PWs)   bands (ev):

    -9.0866  -6.0461  -5.5605  -2.1290  -0.1013   1.3095   1.9922   2.4326
     4.2411   4.8279   5.5646   6.8766   7.7299   9.6286  10.9776  13.0047
    17.1026  18.2017  19.2353

          k =-0.3571 0.0714 0.3571 (   844 PWs)   bands (ev):

    -9.0536  -6.5013  -4.9564  -2.3899   0.0085   1.3295   1.6740   2.9656
     3.9690   4.7604   5.3185   7.0586   7.8207   9.7931  11.5469  12.1784
    17.5597  18.0559  19.2696

          k = 0.3571-0.0714-0.5000 (   844 PWs)   bands (ev):

    -8.7487  -6.5759  -5.3504  -2.5024   0.2143   1.0918   1.9962   2.3791
     4.1891   4.6310   5.8340   7.0993   7.7070   9.6370  11.3265  12.5123
    17.9825  18.3349  19.1054

          k = 0.2143-0.2143 0.2143 (   844 PWs)   bands (ev):

    -9.7650  -5.7435  -4.3462  -2.5835  -0.0161   1.0557   2.2773   3.0420
     3.1130   4.8327   6.3023   6.7914   7.2243  10.0519  11.8035  13.0931
    15.9720  16.9512  17.5742

          k = 0.2143-0.2143 0.3571 (   853 PWs)   bands (ev):

    -9.2691  -6.2434  -4.6675  -2.3164  -0.5526   0.8380   1.9876   2.6002
     4.1231   5.1566   6.3330   6.7464   7.3136  10.0132  11.5328  12.7785
    16.8327  17.4607  18.4995

          k =-0.3571 0.2143 0.2143 (   853 PWs)   bands (ev):

    -9.2635  -6.3909  -4.0076  -3.1732   0.1692   0.2371   2.1295   3.1354
     3.7473   5.0826   6.2649   6.7250   7.3714  10.0896  11.4410  12.7791
    16.4212  18.0976  18.4223

          k = 0.2143-0.2143-0.5000 (   852 PWs)   bands (ev):

    -8.9374  -6.7170  -4.6193  -2.0668  -0.8654   0.4670   1.9701   2.5997
     4.6624   5.3836   6.0668   6.6021   7.2481  10.6051  11.1661  12.3890
    17.2536  18.5661  18.9196

          k = 0.3571-0.2143 0.3571 (   846 PWs)   bands (ev):

    -8.7974  -6.0574  -5.3285  -2.4925  -1.0014   0.6937   0.7799   3.1996
     4.8899   5.9670   6.2114   6.6457   7.1751  10.5915  11.2820  13.0413
    17.1581  17.8739  18.9188

          k =-0.3571 0.2143 0.3571 (   846 PWs)   bands (ev):

    -8.7884  -6.3065  -4.8379  -2.9617  -0.7596   0.2391   1.1950   3.5604
     4.7277   5.4640   6.3948   6.7053   7.2244  10.4396  11.7118  12.7245
    17.2797  18.0045  18.8583

          k = 0.3571-0.2143-0.5000 (   854 PWs)   bands (ev):

    -8.4853  -6.3662  -5.2471  -2.6780  -1.0606   0.0915   0.8360   3.5399
     5.3441   5.7243   6.3114   6.4717   7.2567  10.9095  11.4917  12.7453
    17.9529  18.1847  18.7689

          k = 0.3571-0.3571 0.3571 (   850 PWs)   bands (ev):

    -8.3540  -6.0553  -4.9670  -3.3750  -1.2162  -0.4781  -0.0387   4.7393
     5.3125   5.6653   6.2593   6.9903   7.5391  11.0273  12.0094  13.1150
    17.3196  18.0785  18.7612

          k = 0.3571-0.3571-0.5000 (   866 PWs)   bands (ev):

    -8.0871  -5.9991  -5.1685  -3.2956  -1.5777  -0.7363  -0.3835   4.9529
     5.2867   5.8228   6.7412   6.8922   7.6541  11.3000  12.2958  13.0678
    17.8483  18.1059  18.3976

     the Fermi energy is    11.7007 ev

!    total energy              =     -88.05488196 Ry
     Harris-Foulkes estimate   =     -88.05488196 Ry
     estimated scf accuracy    <          4.8E-10 Ry

     The total energy is the sum of the following terms:

     one-electron contribution =      13.34085293 Ry
     hartree contribution      =      12.19899903 Ry
     xc contribution           =     -25.72683151 Ry
     ewald contribution        =     -87.86681817 Ry
     smearing contrib. (-TS)   =      -0.00108423 Ry

     convergence has been achieved in   9 iterations

     Forces acting on atoms (cartesian axes, Ry/au):

     atom    1 type  1   force =     0.00000070    0.00001289    0.00000070
     atom    2 type  1   force =    -0.00001359   -0.00001359    0.00000365
     atom    3 type  1   force =     0.00000365   -0.00001359   -0.00001359
     atom    4 type  1   force =    -0.00001359    0.00000365   -0.00001359
     atom    5 type  1   force =     0.00001289    0.00000070    0.00000070
     atom    6 type  1   force =     0.00000070    0.00000070    0.00001289
     atom    7 type  2   force =     0.00000924    0.00000924    0.00000924

     Total force =     0.000044     Total SCF correction =     0.000038
     SCF correction compared to forces is large: reduce conv_thr to get better values


     Computing stress (Cartesian axis) and pressure

          total   stress  (Ry/bohr**3)                   (kbar)     P= -168.36
  -0.00114447   0.00105414   0.00105414       -168.36    155.07    155.07
   0.00105414  -0.00114447   0.00105414        155.07   -168.36    155.07
   0.00105414   0.00105414  -0.00114447        155.07    155.07   -168.36


     Writing output data file NV.save/

     init_run     :      0.79s CPU      0.81s WALL (       1 calls)
     electrons    :     16.42s CPU     16.51s WALL (       1 calls)
     forces       :      0.32s CPU      0.32s WALL (       1 calls)
     stress       :      0.53s CPU      0.53s WALL (       1 calls)

     Called by init_run:
     wfcinit      :      0.65s CPU      0.66s WALL (       1 calls)
     potinit      :      0.01s CPU      0.01s WALL (       1 calls)
     hinit0       :      0.12s CPU      0.12s WALL (       1 calls)

     Called by electrons:
     c_bands      :     14.55s CPU     14.63s WALL (       9 calls)
     sum_band     :      1.72s CPU      1.73s WALL (       9 calls)
     v_of_rho     :      0.01s CPU      0.01s WALL (      10 calls)
     newd         :      0.11s CPU      0.12s WALL (      10 calls)
     mix_rho      :      0.01s CPU      0.01s WALL (       9 calls)

     Called by c_bands:
     init_us_2    :      0.27s CPU      0.27s WALL (     924 calls)
     cegterg      :     14.00s CPU     14.08s WALL (     396 calls)

     Called by sum_band:
     sum_band:bec :      0.01s CPU      0.01s WALL (     396 calls)
     addusdens    :      0.09s CPU      0.09s WALL (       9 calls)

     Called by *egterg:
     h_psi        :      8.07s CPU      8.12s WALL (    1537 calls)
     s_psi        :      1.58s CPU      1.59s WALL (    1537 calls)
     g_psi        :      0.07s CPU      0.07s WALL (    1097 calls)
     cdiaghg      :      1.20s CPU      1.20s WALL (    1493 calls)

     Called by h_psi:
     h_psi:pot    :      8.03s CPU      8.08s WALL (    1537 calls)
     h_psi:calbec :      1.58s CPU      1.59s WALL (    1537 calls)
     vloc_psi     :      4.84s CPU      4.87s WALL (    1537 calls)
     add_vuspsi   :      1.61s CPU      1.62s WALL (    1537 calls)

     General routines
     calbec       :      2.43s CPU      2.45s WALL (    2153 calls)
     fft          :      0.04s CPU      0.04s WALL (      63 calls)
     ffts         :      0.01s CPU      0.01s WALL (      19 calls)
     fftw         :      4.78s CPU      4.82s WALL (   51992 calls)
     interpolate  :      0.01s CPU      0.01s WALL (      10 calls)

     Parallel routines

     PWSCF        :     18.17s CPU     18.29s WALL


   This run was terminated on:   4:54:29  14Dec2022            

=------------------------------------------------------------------------------=
   JOB DONE.
=------------------------------------------------------------------------------=
