
     Program PWSCF v.6.4.1 starts on 14Dec2022 at  5:44:44 

     This program is part of the open-source Quantum ESPRESSO suite
     for quantum simulation of materials; please cite
         "P. Giannozzi et al., J. Phys.:Condens. Matter 21 395502 (2009);
         "P. Giannozzi et al., J. Phys.:Condens. Matter 29 465901 (2017);
          URL http://www.quantum-espresso.org", 
     in publications or presentations arising from this work. More details at
     http://www.quantum-espresso.org/quote

     Parallel version (MPI), running on     1 processors

     MPI processes distributed on     1 nodes
     Waiting for input...
     Reading input from standard input

     Current dimensions of program PWSCF are:
     Max number of different atomic species (ntypx) = 10
     Max number of k-points (npk) =  40000
     Max angular momentum in pseudopotentials (lmaxx) =  3

     Subspace diagonalization in iterative solution of the eigenvalue problem:
     a serial algorithm will be used


     G-vector sticks info
     --------------------
     sticks:   dense  smooth     PW     G-vecs:    dense   smooth      PW
     Sum         545     437    145                 9459     6859    1309



     bravais-lattice index     =            1
     lattice parameter (alat)  =       6.7407  a.u.
     unit-cell volume          =     306.2710 (a.u.)^3
     number of atoms/cell      =            7
     number of atomic types    =            2
     number of electrons       =        29.00
     number of Kohn-Sham states=           19
     kinetic-energy cutoff     =      30.0000  Ry
     charge density cutoff     =     150.0000  Ry
     convergence threshold     =      1.0E-08
     mixing beta               =       0.7000
     number of iterations used =            8  plain     mixing
     Exchange-correlation      = SLA PZ NOGX NOGC ( 1  1  0  0 0 0)
     nstep                     =           50


     celldm(1)=   6.740653  celldm(2)=   0.000000  celldm(3)=   0.000000
     celldm(4)=   0.000000  celldm(5)=   0.000000  celldm(6)=   0.000000

     crystal axes: (cart. coord. in units of alat)
               a(1) = (   1.000000   0.000000   0.000000 )  
               a(2) = (   0.000000   1.000000   0.000000 )  
               a(3) = (   0.000000   0.000000   1.000000 )  

     reciprocal axes: (cart. coord. in units 2 pi/alat)
               b(1) = (  1.000000  0.000000  0.000000 )  
               b(2) = (  0.000000  1.000000  0.000000 )  
               b(3) = (  0.000000  0.000000  1.000000 )  


     PseudoPot. # 1 for C  read from file:
     ./C.pz-van_ak.UPF
     MD5 check sum: d40b4001ce20bbb1180eafeb54b8064c
     Pseudo is Ultrasoft, Zval =  4.0
     Generated by new atomic code, or converted to UPF format
     Using radial grid of  721 points,  4 beta functions with: 
                l(1) =   0
                l(2) =   0
                l(3) =   1
                l(4) =   1
     Q(r) pseudized with  8 coefficients,  rinner =    0.800   0.800   0.800


     PseudoPot. # 2 for N  read from file:
     ./N.pz-van_ak.UPF
     MD5 check sum: 6092c7bba5830f51dd79c833739b857d
     Pseudo is Ultrasoft, Zval =  5.0
     Generated by new atomic code, or converted to UPF format
     Using radial grid of  729 points,  4 beta functions with: 
                l(1) =   0
                l(2) =   0
                l(3) =   1
                l(4) =   1
     Q(r) pseudized with  8 coefficients,  rinner =    0.800   0.800   0.800


     atomic species   valence    mass     pseudopotential
        C              4.00    12.01070     C ( 1.00)
        N              5.00    14.00670     N ( 1.00)

      6 Sym. Ops. (no inversion) found



   Cartesian axes

     site n.     atom                  positions (alat units)
         1           C   tau(   1) = (   0.2500000   0.7500000   0.2500000  )
         2           C   tau(   2) = (   0.0000000   0.0000000   0.5000000  )
         3           C   tau(   3) = (   0.5000000   0.0000000   0.0000000  )
         4           C   tau(   4) = (   0.0000000   0.5000000   0.0000000  )
         5           C   tau(   5) = (   0.7500000   0.2500000   0.2500000  )
         6           C   tau(   6) = (   0.2500000   0.2500000   0.7500000  )
         7           N   tau(   7) = (   0.7500000   0.7500000   0.7500000  )

     number of k points=    44  gaussian smearing, width (Ry)=  0.0100
                       cart. coord. in units 2pi/alat
        k(    1) = (   0.0714286   0.0714286   0.0714286), wk =   0.0116618
        k(    2) = (   0.0714286   0.0714286   0.2142857), wk =   0.0349854
        k(    3) = (   0.0714286   0.0714286   0.3571429), wk =   0.0349854
        k(    4) = (   0.0714286   0.0714286  -0.5000000), wk =   0.0349854
        k(    5) = (   0.0714286   0.2142857   0.2142857), wk =   0.0349854
        k(    6) = (   0.0714286   0.2142857   0.3571429), wk =   0.0699708
        k(    7) = (   0.0714286   0.2142857  -0.5000000), wk =   0.0699708
        k(    8) = (   0.0714286   0.3571429   0.3571429), wk =   0.0349854
        k(    9) = (   0.0714286   0.3571429  -0.5000000), wk =   0.0699708
        k(   10) = (   0.0714286  -0.5000000  -0.5000000), wk =   0.0349854
        k(   11) = (   0.2142857   0.2142857   0.2142857), wk =   0.0116618
        k(   12) = (   0.2142857   0.2142857   0.3571429), wk =   0.0349854
        k(   13) = (   0.2142857   0.2142857  -0.5000000), wk =   0.0349854
        k(   14) = (   0.2142857   0.3571429   0.3571429), wk =   0.0349854
        k(   15) = (   0.2142857   0.3571429  -0.5000000), wk =   0.0699708
        k(   16) = (   0.2142857  -0.5000000  -0.5000000), wk =   0.0349854
        k(   17) = (   0.3571429   0.3571429   0.3571429), wk =   0.0116618
        k(   18) = (   0.3571429   0.3571429  -0.5000000), wk =   0.0349854
        k(   19) = (   0.3571429  -0.5000000  -0.5000000), wk =   0.0349854
        k(   20) = (  -0.5000000  -0.5000000  -0.5000000), wk =   0.0058309
        k(   21) = (   0.0714286  -0.0714286   0.0714286), wk =   0.0349854
        k(   22) = (   0.0714286  -0.0714286   0.2142857), wk =   0.0699708
        k(   23) = (  -0.2142857   0.0714286   0.0714286), wk =   0.0349854
        k(   24) = (   0.0714286  -0.0714286   0.3571429), wk =   0.0699708
        k(   25) = (  -0.3571429   0.0714286   0.0714286), wk =   0.0349854
        k(   26) = (   0.0714286  -0.0714286  -0.5000000), wk =   0.0349854
        k(   27) = (   0.2142857  -0.0714286   0.2142857), wk =   0.0349854
        k(   28) = (  -0.2142857   0.0714286   0.2142857), wk =   0.0699708
        k(   29) = (   0.2142857  -0.0714286   0.3571429), wk =   0.0699708
        k(   30) = (  -0.2142857   0.0714286   0.3571429), wk =   0.0699708
        k(   31) = (  -0.3571429   0.2142857   0.0714286), wk =   0.0699708
        k(   32) = (   0.2142857  -0.0714286  -0.5000000), wk =   0.0699708
        k(   33) = (   0.3571429  -0.0714286   0.3571429), wk =   0.0349854
        k(   34) = (  -0.3571429   0.0714286   0.3571429), wk =   0.0699708
        k(   35) = (   0.3571429  -0.0714286  -0.5000000), wk =   0.0699708
        k(   36) = (   0.2142857  -0.2142857   0.2142857), wk =   0.0349854
        k(   37) = (   0.2142857  -0.2142857   0.3571429), wk =   0.0699708
        k(   38) = (  -0.3571429   0.2142857   0.2142857), wk =   0.0349854
        k(   39) = (   0.2142857  -0.2142857  -0.5000000), wk =   0.0349854
        k(   40) = (   0.3571429  -0.2142857   0.3571429), wk =   0.0349854
        k(   41) = (  -0.3571429   0.2142857   0.3571429), wk =   0.0699708
        k(   42) = (   0.3571429  -0.2142857  -0.5000000), wk =   0.0699708
        k(   43) = (   0.3571429  -0.3571429   0.3571429), wk =   0.0349854
        k(   44) = (   0.3571429  -0.3571429  -0.5000000), wk =   0.0349854

     Dense  grid:     9459 G-vectors     FFT dimensions: (  27,  27,  27)

     Smooth grid:     6859 G-vectors     FFT dimensions: (  24,  24,  24)

     Estimated max dynamical RAM per process >      27.60 MB

     Initial potential from superposition of free atoms

     starting charge   28.99979, renormalised to   29.00000
     Starting wfcs are   28 randomized atomic wfcs

     total cpu time spent up to now is        1.2 secs

     Self-consistent Calculation

     iteration #  1     ecut=    30.00 Ry     beta= 0.70
     Davidson diagonalization with overlap
     ethr =  1.00E-02,  avg # of iterations =  2.2

     total cpu time spent up to now is        2.8 secs

     total energy              =     -87.98175224 Ry
     Harris-Foulkes estimate   =     -88.14516740 Ry
     estimated scf accuracy    <       0.31394856 Ry

     iteration #  2     ecut=    30.00 Ry     beta= 0.70
     Davidson diagonalization with overlap
     ethr =  1.08E-03,  avg # of iterations =  2.0

     total cpu time spent up to now is        4.0 secs

     total energy              =     -88.00864501 Ry
     Harris-Foulkes estimate   =     -88.02446309 Ry
     estimated scf accuracy    <       0.02418505 Ry

     iteration #  3     ecut=    30.00 Ry     beta= 0.70
     Davidson diagonalization with overlap
     ethr =  8.34E-05,  avg # of iterations =  4.5

     total cpu time spent up to now is        5.7 secs

     total energy              =     -88.01114578 Ry
     Harris-Foulkes estimate   =     -88.03122711 Ry
     estimated scf accuracy    <       0.05003098 Ry

     iteration #  4     ecut=    30.00 Ry     beta= 0.70
     Davidson diagonalization with overlap
     ethr =  8.34E-05,  avg # of iterations =  3.0

     total cpu time spent up to now is        7.0 secs

     total energy              =     -88.01965232 Ry
     Harris-Foulkes estimate   =     -88.01979897 Ry
     estimated scf accuracy    <       0.00034053 Ry

     iteration #  5     ecut=    30.00 Ry     beta= 0.70
     Davidson diagonalization with overlap
     ethr =  1.17E-06,  avg # of iterations =  4.8

     total cpu time spent up to now is        8.9 secs

     total energy              =     -88.01977867 Ry
     Harris-Foulkes estimate   =     -88.01985108 Ry
     estimated scf accuracy    <       0.00015411 Ry

     iteration #  6     ecut=    30.00 Ry     beta= 0.70
     Davidson diagonalization with overlap
     ethr =  5.31E-07,  avg # of iterations =  2.0

     total cpu time spent up to now is       10.1 secs

     total energy              =     -88.01980618 Ry
     Harris-Foulkes estimate   =     -88.01980679 Ry
     estimated scf accuracy    <       0.00000205 Ry

     iteration #  7     ecut=    30.00 Ry     beta= 0.70
     Davidson diagonalization with overlap
     ethr =  7.08E-09,  avg # of iterations =  2.5

     total cpu time spent up to now is       11.6 secs

     total energy              =     -88.01980678 Ry
     Harris-Foulkes estimate   =     -88.01980687 Ry
     estimated scf accuracy    <       0.00000015 Ry

     iteration #  8     ecut=    30.00 Ry     beta= 0.70
     Davidson diagonalization with overlap
     ethr =  5.19E-10,  avg # of iterations =  2.0

     total cpu time spent up to now is       13.2 secs

     End of self-consistent calculation

          k = 0.0714 0.0714 0.0714 (   844 PWs)   bands (ev):

   -10.2094  -3.9106  -2.6155  -2.6155  -0.2320  -0.2320   3.8230   3.8230
     4.6762   4.8266   6.2147   6.6997   6.6997  11.8517  13.3258  13.3258
    14.3762  16.1305  16.1305

          k = 0.0714 0.0714 0.2143 (   844 PWs)   bands (ev):

    -9.9013  -4.8350  -3.0138  -2.3908  -0.1134   1.0985   3.2122   3.6965
     4.6578   5.3983   5.6401   6.3407   6.5075  10.8854  12.7040  12.9652
    15.1231  16.5175  17.0226

          k = 0.0714 0.0714 0.3571 (   848 PWs)   bands (ev):

    -9.3491  -6.2073  -2.7275  -2.0511   0.0227   1.9681   2.5829   3.5137
     4.3190   4.6478   6.0358   6.1616   7.2416   9.8177  12.0079  12.0118
    15.7378  17.2737  18.0994

          k = 0.0714 0.0714-0.5000 (   842 PWs)   bands (ev):

    -8.9312  -6.9516  -2.4745  -1.8717   0.0824   2.1757   2.3360   3.2858
     4.0355   4.3511   6.0596   6.2010   8.4966   9.1494  11.1684  11.7145
    15.8727  17.2363  19.8096

          k = 0.0714 0.2143 0.2143 (   845 PWs)   bands (ev):

    -9.6033  -4.6699  -4.2193  -2.4073   0.3563   1.7054   2.6219   3.9629
     4.6359   5.0189   5.6103   6.6009   6.6194   9.7965  12.1982  13.1669
    15.7048  17.0213  17.0733

          k = 0.0714 0.2143 0.3571 (   854 PWs)   bands (ev):

    -9.0668  -5.8903  -3.9622  -2.1785   0.2289   1.8555   2.4484   3.7940
     4.6068   5.0624   5.5671   6.3343   7.6823   8.8123  11.5757  12.6592
    16.5570  17.5619  18.4488

          k = 0.0714 0.2143-0.5000 (   842 PWs)   bands (ev):

    -8.6493  -6.6827  -3.5787  -2.1148   0.1846   1.5965   2.5620   3.3555
     4.5926   5.1992   5.6628   6.2431   8.0444   9.0592  11.3016  11.8860
    16.8143  18.1450  19.2669

          k = 0.0714 0.3571 0.3571 (   844 PWs)   bands (ev):

    -8.5612  -5.4909  -5.2352  -2.3634   0.1004   2.0331   2.5095   3.4418
     4.5997   4.6253   6.3609   6.8499   7.6438   8.4938  11.2470  12.8213
    17.0794  18.5867  18.7949

          k = 0.0714 0.3571-0.5000 (   844 PWs)   bands (ev):

    -8.1659  -6.2346  -4.8620  -2.6388   0.3673   1.7633   2.5821   3.2340
     4.1514   4.8585   6.4966   7.2460   7.3236   8.9371  11.4748  12.2939
    17.8868  18.4150  19.4490

          k = 0.0714-0.5000-0.5000 (   856 PWs)   bands (ev):

    -7.8361  -5.8984  -5.5789  -2.9939   0.9977   1.7914   1.9682   3.1246
     4.2798   4.5392   6.9068   6.9872   7.8106   8.8827  11.5031  12.5365
    17.8055  18.8419  19.4586

          k = 0.2143 0.2143 0.2143 (   844 PWs)   bands (ev):

    -9.3176  -4.3560  -3.9708  -3.9708   1.0416   1.0416   3.2972   3.7061
     3.7061   5.6055   6.5393   6.5393   6.7856   8.6232  12.8278  12.8278
    15.9483  17.0717  17.0717

          k = 0.2143 0.2143 0.3571 (   853 PWs)   bands (ev):

    -8.8010  -5.5596  -3.6932  -3.5796   0.1726   0.9181   2.6654   3.7806
     4.9978   5.8615   6.2293   6.4423   7.0845   8.4691  12.4416  12.5659
    16.6476  17.6115  18.0840

          k = 0.2143 0.2143-0.5000 (   852 PWs)   bands (ev):

    -8.3888  -6.4037  -3.3573  -3.1750  -0.2285   0.4881   2.6245   3.8673
     5.2254   5.6513   6.2037   6.6381   6.7415   9.5955  11.7094  12.2530
    16.9263  18.4411  19.3960

          k = 0.2143 0.3571 0.3571 (   846 PWs)   bands (ev):

    -8.3229  -5.0859  -4.9762  -3.2701  -0.5015   0.6815   1.5699   4.6511
     5.7420   5.9618   6.2116   6.5478   6.8776   9.1511  12.2854  12.8546
    17.0057  18.1838  18.2332

          k = 0.2143 0.3571-0.5000 (   854 PWs)   bands (ev):

    -7.9409  -5.9371  -4.5505  -3.0240  -0.7362   0.2929   1.3292   4.8598
     5.5051   5.6811   6.2856   6.6121   7.4080  10.0129  12.0662  12.5614
    17.5227  18.2957  19.2865

          k = 0.2143-0.5000-0.5000 (   856 PWs)   bands (ev):

    -7.6242  -5.6028  -5.3173  -2.9715  -0.5182   0.2730   0.4834   4.8680
     5.2858   5.9616   5.9850   7.1261   7.8594  10.3860  11.9388  12.7450
    17.7043  18.7863  18.9435

          k = 0.3571 0.3571 0.3571 (   850 PWs)   bands (ev):

    -7.8989  -4.5613  -4.5613  -4.3853  -0.5300  -0.5300   0.2893   4.9488
     6.3214   6.3214   6.8306   6.8306   7.0989   9.8868  12.9240  12.9240
    16.9124  18.2605  18.2605

          k = 0.3571 0.3571-0.5000 (   866 PWs)   bands (ev):

    -7.5647  -5.4380  -4.3179  -3.6397  -1.0469  -0.8480  -0.0553   4.5044
     6.4319   6.4460   6.6874   7.4957   7.5117  10.6929  12.6884  12.9500
    17.2139  18.2467  18.9078

          k = 0.3571-0.5000-0.5000 (   876 PWs)   bands (ev):

    -7.3080  -5.0721  -4.8953  -3.2594  -1.3692  -0.9696  -0.8021   4.0625
     6.3433   6.7707   7.3727   7.6116   7.9222  11.1663  12.7994  13.0620
    17.2429  18.4747  18.5280

          k =-0.5000-0.5000-0.5000 (   840 PWs)   bands (ev):

    -7.1394  -4.6434  -4.6434  -3.6879  -1.6338  -1.3532  -1.3532   3.6050
     6.9043   6.9043   7.9396   7.9396   7.9855  11.4015  13.2329  13.2329
    16.9028  18.3650  18.3650

          k = 0.0714-0.0714 0.0714 (   844 PWs)   bands (ev):

   -10.2044  -4.2246  -2.6215  -1.6939  -0.9036  -0.2145   3.6915   3.9884
     4.3927   4.8389   6.3535   6.7729   6.8204  12.1921  12.8917  13.3296
    14.3606  16.2448  16.3379

          k = 0.0714-0.0714 0.2143 (   844 PWs)   bands (ev):

    -9.8908  -5.0382  -3.1078  -1.2629  -0.9007   1.0120   3.0273   3.8599
     4.2510   5.1755   6.0250   6.5184   6.6905  11.3744  12.1404  12.9140
    15.0864  16.6705  17.1405

          k =-0.2143 0.0714 0.0714 (   844 PWs)   bands (ev):

    -9.8858  -5.1667  -2.4079  -2.2694  -0.0615   0.5721   3.2814   3.3163
     4.3031   5.4173   5.9256   6.5834   6.7984  11.4853  12.1857  12.6913
    14.9533  17.0985  17.2590

          k = 0.0714-0.0714 0.3571 (   848 PWs)   bands (ev):

    -9.3337  -6.2821  -2.9884  -0.9352  -0.6969   1.9719   2.3887   3.5286
     3.8944   4.8556   5.8858   6.5985   7.2772  10.3319  11.3998  12.0481
    15.7227  17.3112  18.1409

          k =-0.3571 0.0714 0.0714 (   848 PWs)   bands (ev):

    -9.3250  -6.3457  -2.3896  -2.0714   0.0875   1.8445   2.5886   2.7953
     4.1312   5.1632   5.9543   6.3184   7.4576  10.4229  11.3159  11.9965
    15.5339  17.3968  18.7863

          k = 0.0714-0.0714-0.5000 (   842 PWs)   bands (ev):

    -8.9265  -6.9553  -2.8757  -0.8266  -0.5391   1.9493   2.4416   3.5101
     3.7759   4.4162   5.6990   6.6542   8.3198   9.5018  11.0984  11.5575
    15.9669  17.2049  19.8038

          k = 0.2143-0.0714 0.2143 (   845 PWs)   bands (ev):

    -9.5866  -4.9796  -4.2226  -1.2809  -0.4704   1.7874   2.3766   3.9286
     4.2625   4.7643   6.1796   6.6532   6.8401  10.3856  11.5378  13.1604
    15.6454  17.1465  17.6008

          k =-0.2143 0.0714 0.2143 (   845 PWs)   bands (ev):

    -9.5708  -5.4112  -3.4891  -1.8622   0.2267   1.2848   2.3357   3.6340
     4.4526   4.7031   6.0145   6.8476   7.1738  10.5214  11.7524  12.6308
    15.6180  17.1108  17.8340

          k = 0.2143-0.0714 0.3571 (   854 PWs)   bands (ev):

    -9.0436  -5.9837  -4.1489  -1.3807  -0.0680   1.7392   2.2085   3.4972
     4.2901   5.1852   5.8476   6.6405   7.5048   9.6371  10.9186  12.6337
    16.5841  17.7541  18.2287

          k =-0.2143 0.0714 0.3571 (   854 PWs)   bands (ev):

    -9.0186  -6.1809  -3.8072  -1.6137   0.1849   1.4961   2.1675   3.7376
     4.3066   4.5381   6.0438   6.7595   7.6912   9.7806  11.2946  12.0231
    16.5769  17.9099  18.3878

          k =-0.3571 0.2143 0.0714 (   854 PWs)   bands (ev):

    -9.0162  -6.2259  -3.5524  -2.0324   0.3750   1.6086   2.1346   3.4429
     4.5109   4.8650   5.7025   6.7855   7.7108   9.7375  11.2677  12.1026
    16.3248  18.2030  18.5463

          k = 0.2143-0.0714-0.5000 (   842 PWs)   bands (ev):

    -8.6350  -6.6956  -3.8517  -1.5472   0.2132   1.3610   2.2776   3.3793
     4.3501   5.1582   5.9263   6.4254   7.9414   9.5427  10.9908  11.7900
    17.0752  18.0290  19.1725

          k = 0.3571-0.0714 0.3571 (   844 PWs)   bands (ev):

    -8.5304  -5.6639  -5.2366  -2.0589   0.4858   1.8404   2.1067   2.8445
     4.3915   5.2961   6.4061   6.9654   7.3998   9.2932  10.7034  12.8027
    17.0306  18.7841  19.3310

          k =-0.3571 0.0714 0.3571 (   844 PWs)   bands (ev):

    -8.4864  -6.1879  -4.5479  -2.2880   0.4265   1.6812   2.1527   3.4330
     4.1527   5.1524   5.7994   7.2744   7.6292   9.3017  11.5004  11.9575
    17.4547  18.4783  19.1543

          k = 0.3571-0.0714-0.5000 (   844 PWs)   bands (ev):

    -8.1452  -6.2618  -4.9498  -2.5042   0.8885   1.3939   2.3965   2.7627
     4.3243   5.0334   6.6125   7.1069   7.4365   9.1590  11.2825  12.2758
    17.9584  18.5470  19.3108

          k = 0.2143-0.2143 0.2143 (   844 PWs)   bands (ev):

    -9.2658  -5.4013  -3.9800  -2.2230   0.3665   1.1728   2.7070   3.3693
     3.5990   5.1112   6.7518   7.0844   7.2602   9.6290  11.8081  12.7935
    15.8133  17.2271  18.0459

          k = 0.2143-0.2143 0.3571 (   853 PWs)   bands (ev):

    -8.7293  -5.9236  -4.2968  -1.9251  -0.2623   0.9617   2.3874   2.9877
     4.7038   5.4576   6.7203   6.9470   7.2067   9.7637  11.3899  12.4820
    16.7286  17.8331  18.6411

          k =-0.3571 0.2143 0.2143 (   853 PWs)   bands (ev):

    -8.7212  -6.0850  -3.5907  -2.7907   0.2449   0.4782   2.5946   3.7301
     4.1451   5.3817   6.6456   6.9626   7.1867   9.7462  11.5446  12.4036
    16.3891  18.3169  18.6914

          k = 0.2143-0.2143-0.5000 (   852 PWs)   bands (ev):

    -8.3456  -6.4486  -4.2338  -1.6509  -0.6083   0.6063   2.3319   3.0287
     5.2208   5.9553   6.1492   6.7916   7.0929  10.5149  10.9282  12.0406
    17.5107  18.2761  18.9024

          k = 0.3571-0.2143 0.3571 (   846 PWs)   bands (ev):

    -8.2294  -5.6874  -4.9802  -2.1679  -0.6258   0.7395   1.1111   3.7011
     5.3257   6.0044   6.5357   6.9282   7.3128  10.4321  11.0880  12.8081
    17.0314  18.4536  19.0903

          k =-0.3571 0.2143 0.3571 (   846 PWs)   bands (ev):

    -8.2154  -5.9769  -4.4302  -2.6028  -0.5328   0.3846   1.5217   4.1230
     5.2959   5.8054   6.0283   6.9188   7.6016  10.2163  11.7137  12.4116
    17.1682  18.3990  18.8635

          k = 0.3571-0.2143-0.5000 (   854 PWs)   bands (ev):

    -7.8802  -6.0284  -4.8578  -2.4277  -0.5998   0.2167   1.0360   4.1005
     5.5625   5.8037   6.4051   7.0305   7.4269  10.6553  11.4432  12.4962
    17.9250  18.3659  18.9425

          k = 0.3571-0.3571 0.3571 (   850 PWs)   bands (ev):

    -7.7676  -5.6904  -4.5662  -2.8342  -0.9754  -0.5015   0.1876   4.9363
     5.2926   6.0474   6.6250   7.6073   7.7191  10.9345  11.9275  12.8824
    17.1939  18.6190  18.6285

          k = 0.3571-0.3571-0.5000 (   866 PWs)   bands (ev):

    -7.4876  -5.6046  -4.7746  -2.6854  -1.3679  -0.6804  -0.3033   4.5104
     5.5429   6.4771   7.3877   7.4851   7.6575  11.2539  12.1798  12.8674
    17.6451  18.2048  18.8528

     the Fermi energy is    11.5424 ev

!    total energy              =     -88.01980681 Ry
     Harris-Foulkes estimate   =     -88.01980682 Ry
     estimated scf accuracy    <          7.1E-09 Ry

     The total energy is the sum of the following terms:

     one-electron contribution =      17.03896123 Ry
     hartree contribution      =      10.51733338 Ry
     xc contribution           =     -25.54525041 Ry
     ewald contribution        =     -90.02943356 Ry
     smearing contrib. (-TS)   =      -0.00141746 Ry

     convergence has been achieved in   8 iterations

     Forces acting on atoms (cartesian axes, Ry/au):

     atom    1 type  1   force =    -0.06815257    0.02516292   -0.06815257
     atom    2 type  1   force =     0.00671598    0.00671598    0.04782849
     atom    3 type  1   force =     0.04782849    0.00671598    0.00671598
     atom    4 type  1   force =     0.00671598    0.04782849    0.00671598
     atom    5 type  1   force =     0.02516292   -0.06815257   -0.06815257
     atom    6 type  1   force =    -0.06815257   -0.06815257    0.02516292
     atom    7 type  2   force =     0.04988177    0.04988177    0.04988177

     Total force =     0.210632     Total SCF correction =     0.000218


     Computing stress (Cartesian axis) and pressure

          total   stress  (Ry/bohr**3)                   (kbar)     P= -264.65
  -0.00179904   0.00090922   0.00090922       -264.65    133.75    133.75
   0.00090922  -0.00179904   0.00090922        133.75   -264.65    133.75
   0.00090922   0.00090922  -0.00179904        133.75    133.75   -264.65


     BFGS Geometry Optimization

     number of scf cycles    =   1
     number of bfgs steps    =   0

     enthalpy new            =     -88.0198068137 Ry

     new trust radius        =       0.1934964662 bohr
     new conv_thr            =       0.0000000100 Ry

     new unit-cell volume =    266.33103 a.u.^3 (    39.46619 Ang^3 )
     density =      3.62143 g/cm^3

CELL_PARAMETERS (alat=  6.74065312)
   0.955023954   0.022730419   0.022730419
   0.022730419   0.955023954   0.022730419
   0.022730419   0.022730419   0.955023954

ATOMIC_POSITIONS (alat)
C        0.251685501   0.730738648   0.251685501
C        0.012500670   0.012500670   0.484333669
C        0.484333669   0.012500670   0.012500670
C        0.012500670   0.484333669   0.012500670
C        0.730738648   0.251685501   0.251685501
C        0.251685501   0.251685501   0.730738648
N        0.757767321   0.757767321   0.757767321



     Writing output data file NV.save/
     NEW-OLD atomic charge density approx. for the potential
     extrapolated charge   24.65108, renormalised to   29.00000

     total cpu time spent up to now is       14.7 secs

     Self-consistent Calculation

     iteration #  1     ecut=    30.00 Ry     beta= 0.70
     Davidson diagonalization with overlap
     c_bands:  1 eigenvalues not converged
     c_bands:  1 eigenvalues not converged
     ethr =  1.00E-06,  avg # of iterations = 13.7

     total cpu time spent up to now is       19.8 secs

     total energy              =     -87.60407751 Ry
     Harris-Foulkes estimate   =     -86.24648895 Ry
     estimated scf accuracy    <       0.39649351 Ry

     iteration #  2     ecut=    30.00 Ry     beta= 0.70
     Davidson diagonalization with overlap
     ethr =  1.37E-03,  avg # of iterations =  4.2

     total cpu time spent up to now is       22.2 secs

     total energy              =     -87.83617195 Ry
     Harris-Foulkes estimate   =     -88.49172452 Ry
     estimated scf accuracy    <       1.99457201 Ry

     iteration #  3     ecut=    30.00 Ry     beta= 0.70
     Davidson diagonalization with overlap
     ethr =  1.37E-03,  avg # of iterations =  2.7

     total cpu time spent up to now is       23.8 secs

     total energy              =     -88.07038859 Ry
     Harris-Foulkes estimate   =     -88.09448896 Ry
     estimated scf accuracy    <       0.07956751 Ry

     iteration #  4     ecut=    30.00 Ry     beta= 0.70
     Davidson diagonalization with overlap
     ethr =  2.74E-04,  avg # of iterations =  1.6

     total cpu time spent up to now is       25.0 secs

     total energy              =     -88.06399120 Ry
     Harris-Foulkes estimate   =     -88.07463018 Ry
     estimated scf accuracy    <       0.03373215 Ry

     iteration #  5     ecut=    30.00 Ry     beta= 0.70
     Davidson diagonalization with overlap
     ethr =  1.16E-04,  avg # of iterations =  1.9

     total cpu time spent up to now is       26.2 secs

     total energy              =     -88.06357560 Ry
     Harris-Foulkes estimate   =     -88.06613046 Ry
     estimated scf accuracy    <       0.00710655 Ry

     iteration #  6     ecut=    30.00 Ry     beta= 0.70
     Davidson diagonalization with overlap
     ethr =  2.45E-05,  avg # of iterations =  4.1

     total cpu time spent up to now is       27.9 secs

     total energy              =     -88.06429927 Ry
     Harris-Foulkes estimate   =     -88.06445810 Ry
     estimated scf accuracy    <       0.00049324 Ry

     iteration #  7     ecut=    30.00 Ry     beta= 0.70
     Davidson diagonalization with overlap
     ethr =  1.70E-06,  avg # of iterations =  3.3

     total cpu time spent up to now is       29.4 secs

     total energy              =     -88.06435370 Ry
     Harris-Foulkes estimate   =     -88.06437406 Ry
     estimated scf accuracy    <       0.00005140 Ry

     iteration #  8     ecut=    30.00 Ry     beta= 0.70
     Davidson diagonalization with overlap
     ethr =  1.77E-07,  avg # of iterations =  2.1

     total cpu time spent up to now is       30.8 secs

     total energy              =     -88.06436136 Ry
     Harris-Foulkes estimate   =     -88.06436249 Ry
     estimated scf accuracy    <       0.00000274 Ry

     iteration #  9     ecut=    30.00 Ry     beta= 0.70
     Davidson diagonalization with overlap
     ethr =  9.45E-09,  avg # of iterations =  2.8

     total cpu time spent up to now is       32.4 secs

     total energy              =     -88.06436223 Ry
     Harris-Foulkes estimate   =     -88.06436224 Ry
     estimated scf accuracy    <       0.00000002 Ry

     iteration # 10     ecut=    30.00 Ry     beta= 0.70
     Davidson diagonalization with overlap
     ethr =  5.83E-11,  avg # of iterations =  3.1

     total cpu time spent up to now is       34.2 secs

     total energy              =     -88.06436224 Ry
     Harris-Foulkes estimate   =     -88.06436225 Ry
     estimated scf accuracy    <       0.00000001 Ry

     iteration # 11     ecut=    30.00 Ry     beta= 0.70
     Davidson diagonalization with overlap
     ethr =  3.57E-11,  avg # of iterations =  2.0

     total cpu time spent up to now is       35.7 secs

     End of self-consistent calculation

          k = 0.0714 0.0714 0.0714 (   844 PWs)   bands (ev):

    -9.9517  -2.8725  -1.3632  -1.3632   1.1313   1.1313   4.9722   4.9722
     6.2404   6.9310   7.1179   8.5489   8.5489  13.6965  16.4794  16.4794
    17.3545  18.7525  18.7525

          k = 0.0679 0.0679 0.2211 (   844 PWs)   bands (ev):

    -9.6355  -3.8796  -1.7020  -1.0467   1.1857   2.3611   4.3260   4.8514
     6.4620   6.8075   7.1959   8.2188   8.2520  12.7688  15.9233  16.0028
    18.1755  19.4716  20.3702

          k = 0.0644 0.0644 0.3709 (   848 PWs)   bands (ev):

    -9.0627  -5.3683  -1.3375  -0.6747   1.3926   3.0706   3.7451   4.5913
     6.0998   6.1265   7.4187   8.1719   9.0589  11.8719  14.7708  15.2239
    18.6224  20.7379  21.6792

          k = 0.0853 0.0853-0.5276 (   842 PWs)   bands (ev):

    -8.6217  -6.1926  -1.0658  -0.6154   1.7386   3.2814   3.6205   4.5458
     5.4548   5.7081   7.1547   8.2540  10.8388  11.2610  13.5576  14.8811
    18.7838  20.5715  23.6801

          k = 0.0644 0.2177 0.2177 (   845 PWs)   bands (ev):

    -9.3409  -3.7249  -2.9694  -0.9172   1.4204   2.9802   3.6720   5.3338
     5.5778   7.1396   7.4419   8.1733   8.5637  11.6731  15.3426  16.3203
    19.2502  20.0535  20.8001

          k = 0.0609 0.2142 0.3674 (   854 PWs)   bands (ev):

    -8.7889  -4.9940  -2.7506  -0.5884   1.2157   3.0363   3.5191   5.0044
     6.0973   6.6161   7.5243   8.2864   9.3381  10.8998  14.5660  15.7085
    19.9663  21.2530  21.8981

          k = 0.0818 0.2351-0.5311 (   842 PWs)   bands (ev):

    -8.3301  -5.9041  -2.4325  -0.5114   1.3222   2.8830   3.7331   4.7370
     5.8517   6.6356   7.3532   8.0877  10.2221  11.2555  13.8706  14.8532
    20.0947  21.3911  22.9562

          k = 0.0575 0.3639 0.3639 (   844 PWs)   bands (ev):

    -8.2696  -4.7050  -4.0196  -0.8393   1.1118   3.3819   3.3965   4.4939
     6.3884   6.6240   7.6699   8.9679   9.4436  10.6736  13.9745  15.8706
    21.1546  21.8296  22.8214

          k = 0.0784 0.3848-0.5346 (   844 PWs)   bands (ev):

    -7.8275  -5.4551  -3.8109  -1.1483   1.4587   3.1017   3.7160   4.3803
     5.6495   6.7977   8.0396   9.0613   9.4564  11.2787  13.8393  15.1965
    21.4068  22.0455  22.8102

          k = 0.0992-0.5137-0.5137 (   856 PWs)   bands (ev):

    -7.4802  -5.2797  -4.3875  -1.6677   2.0168   3.0737   3.5272   4.2989
     5.5816   6.3741   8.6497   9.2505   9.5757  11.2370  13.6463  15.4691
    21.5652  21.9626  23.4612

          k = 0.2142 0.2142 0.2142 (   844 PWs)   bands (ev):

    -9.0692  -3.3998  -2.6251  -2.6251   2.1415   2.1415   4.0925   5.0216
     5.0216   7.8555   8.2060   8.4930   8.4930  10.4799  16.0840  16.0840
    19.9234  20.7105  20.7105

          k = 0.2107 0.2107 0.3639 (   853 PWs)   bands (ev):

    -8.5410  -4.5986  -2.4497  -2.1480   1.2569   1.9448   3.5307   5.0773
     6.3058   7.9025   8.1756   8.4680   8.6785  10.4116  15.6744  15.6781
    20.5767  21.4327  21.8802

          k = 0.2316 0.2316-0.5346 (   852 PWs)   bands (ev):

    -8.0718  -5.6007  -1.9850  -1.9220   1.0592   1.5088   3.5906   5.2589
     6.7431   7.3296   7.6770   8.7023   8.7830  11.6572  14.4520  15.3783
    20.5137  21.9809  22.7673

          k = 0.2072 0.3605 0.3605 (   846 PWs)   bands (ev):

    -8.0511  -4.2370  -3.6873  -1.7933   0.4308   1.9063   2.3467   5.8240
     7.3555   7.8388   8.0295   8.3617   8.9721  11.0283  15.3735  16.0079
    21.4376  21.5953  22.1359

          k = 0.2281 0.3813-0.5381 (   854 PWs)   bands (ev):

    -7.6073  -5.1098  -3.4090  -1.5587   0.1895   1.4814   2.3388   6.1208
     7.2876   7.7015   8.1485   8.2465   9.1934  12.0693  14.8377  15.5789
    21.2815  22.1510  22.6904

          k = 0.2490-0.5172-0.5172 (   856 PWs)   bands (ev):

    -7.2520  -4.9273  -4.0806  -1.6597   0.2815   1.3782   1.9039   6.3521
     7.3204   7.5102   7.8719   8.7867   9.6413  12.5283  14.4818  15.7087
    21.6569  21.8838  22.7183

          k = 0.3570 0.3570 0.3570 (   850 PWs)   bands (ev):

    -7.6111  -3.6622  -3.1765  -3.1765   0.6064   0.6064   0.9460   6.7518
     7.5952   7.5952   8.8110   8.8110   9.3354  11.6984  16.0777  16.0777
    21.6249  21.6249  21.9223

          k = 0.3779 0.3779-0.5415 (   866 PWs)   bands (ev):

    -7.2112  -4.5332  -2.9207  -2.6453   0.0340   0.1359   0.9451   6.4715
     7.7802   8.1859   8.6225   8.9338   9.6189  12.5999  15.6392  15.9977
    21.2861  22.0694  22.8080

          k = 0.3987-0.5206-0.5206 (   876 PWs)   bands (ev):

    -6.9119  -4.2519  -3.5672  -2.2497  -0.5523   0.0866   0.4540   6.0789
     8.0670   8.6423   8.7900   9.1677   9.9157  13.0746  15.7000  16.0502
    21.6488  21.6814  22.1591

          k =-0.4998-0.4998-0.4998 (   840 PWs)   bands (ev):

    -6.7309  -3.3880  -3.2404  -3.2404  -0.8489  -0.1980  -0.1980   5.5643
     8.7578   8.7578   9.3089   9.3089  10.2073  13.2602  16.2217  16.2217
    21.5097  21.5097  22.3598

          k = 0.0749-0.0784 0.0749 (   844 PWs)   bands (ev):

    -9.9327  -3.2689  -1.4524  -0.4828   0.5687   1.2852   4.8089   5.2358
     6.3844   6.5153   7.5866   8.1648   8.6046  14.1743  15.8385  16.4084
    17.2667  18.4063  18.7646

          k = 0.0714-0.0818 0.2246 (   844 PWs)   bands (ev):

    -9.5985  -4.1668  -1.9283  -0.0395   0.6554   2.5126   4.0881   5.2016
     6.0028   6.8816   7.5637   7.8364   8.3800  13.5832  14.8834  15.8927
    17.9939  19.0281  20.1735

          k =-0.2281 0.0784 0.0784 (   844 PWs)   bands (ev):

    -9.5808  -4.3491  -1.2868  -0.9797   1.6221   2.0436   4.4313   4.8347
     5.8632   6.8790   7.4331   8.0553   8.4356  13.8954  14.6208  15.7830
    17.9387  19.3523  19.4496

          k = 0.0679-0.0853 0.3744 (   848 PWs)   bands (ev):

    -9.0155  -5.4971  -1.7920   0.3484   0.9836   3.2031   3.6567   4.8252
     5.2840   6.4775   7.6423   7.8358   9.3264  12.6831  13.8960  14.9579
    18.5233  20.4774  21.5290

          k =-0.3779 0.0818 0.0818 (   848 PWs)   bands (ev):

    -8.9890  -5.6139  -1.0419  -0.9350   1.9151   3.3271   3.9210   4.0218
     5.4103   6.3067   7.1629   8.3178   9.5368  12.8556  13.5495  15.1187
    18.5404  20.3133  22.0195

          k = 0.0888-0.0644-0.5241 (   842 PWs)   bands (ev):

    -8.6088  -6.1949  -1.6632   0.5097   1.2142   2.9449   3.7854   4.8945
     5.0527   5.9194   7.6309   7.7613  10.7281  11.7576  13.4103  14.4881
    18.7508  20.6392  23.2160

          k = 0.2211-0.0853 0.2211 (   845 PWs)   bands (ev):

    -9.2855  -4.1201  -3.0369  -0.1103   1.0962   3.1761   3.4118   5.5153
     5.9586   6.3646   7.3047   8.3375   8.7544  12.7570  13.9919  16.1588
    18.8333  19.3347  20.9269

          k =-0.2316 0.0749 0.2281 (   845 PWs)   bands (ev):

    -9.2340  -4.6423  -2.4584  -0.4596   1.7430   3.1140   3.4869   4.9377
     5.8317   6.1781   7.6116   8.4373   8.8550  13.2062  14.0025  15.4074
    18.6576  19.4092  20.5060

          k = 0.2177-0.0888 0.3709 (   854 PWs)   bands (ev):

    -8.7221  -5.1457  -3.0087  -0.0980   1.3652   2.6563   3.7722   5.0414
     5.9861   6.5423   7.1181   8.4876   9.5788  11.9335  13.3092  15.5192
    19.5792  20.7417  22.0009

          k =-0.2351 0.0714 0.3779 (   854 PWs)   bands (ev):

    -8.6525  -5.4378  -2.8239  -0.0018   1.5926   2.6784   3.4941   5.2656
     5.7865   6.1014   7.4575   8.2024   9.9346  12.3325  13.5771  14.5986
    19.5485  20.3254  21.9441

          k =-0.3813 0.2316 0.0784 (   854 PWs)   bands (ev):

    -8.6456  -5.5234  -2.5242  -0.4832   1.7797   3.0511   3.5516   4.8450
     5.6671   6.0961   7.4259   8.3786   9.9629  12.1422  13.6029  14.8987
    19.5613  20.6401  21.4649

          k = 0.2386-0.0679-0.5276 (   842 PWs)   bands (ev):

    -8.2931  -5.9164  -2.7848  -0.0373   1.5594   2.4588   3.4833   5.0720
     6.0799   6.3671   7.4909   7.8995  10.4688  11.7357  13.3087  14.4854
    19.8995  21.3953  22.7324

          k = 0.3674-0.0923 0.3674 (   844 PWs)   bands (ev):

    -8.1913  -4.9191  -4.0539  -0.8284   1.5149   3.0757   3.8189   4.3871
     6.0328   6.3740   7.7562   9.0882   9.8099  11.3486  12.9675  15.7337
    20.8554  21.2000  22.7999

          k =-0.3848 0.0749 0.3813 (   844 PWs)   bands (ev):

    -8.0890  -5.4818  -3.6002  -0.6345   1.4562   3.0194   3.5982   4.7435
     5.5682   6.7819   7.4094   8.9309   9.9046  11.6996  13.8800  14.4936
    20.3782  21.3784  22.6869

          k = 0.3883-0.0714-0.5311 (   844 PWs)   bands (ev):

    -7.7799  -5.4966  -3.9208  -1.1347   1.7723   2.9150   3.7994   4.2839
     5.8144   6.3975   8.1871   9.0575   9.7754  11.3963  13.4399  15.1003
    21.2847  21.8066  22.7393

          k = 0.2246-0.2351 0.2246 (   844 PWs)   bands (ev):

    -8.9093  -4.6454  -2.8117  -1.1884   1.9324   3.0308   3.7851   4.7325
     5.0325   6.6032   8.1656   8.9441   9.1224  12.1670  13.8120  15.7422
    18.9900  19.4990  21.1519

          k = 0.2211-0.2386 0.3744 (   853 PWs)   bands (ev):

    -8.3490  -5.1440  -3.2102  -0.8586   1.0691   2.3971   3.9675   4.3245
     6.2039   7.0323   8.1299   8.7791   9.3914  12.0898  13.4480  15.3000
    19.8091  20.3464  22.2690

          k =-0.3848 0.2281 0.2281 (   853 PWs)   bands (ev):

    -8.3291  -5.3955  -2.3674  -1.6557   1.7280   1.8773   3.7184   5.2097
     5.5301   6.8707   8.1455   8.9021   9.2855  12.0523  13.7379  15.4103
    19.7876  20.8147  21.6630

          k = 0.2420-0.2177-0.5241 (   852 PWs)   bands (ev):

    -7.9666  -5.6533  -3.1827  -0.4815   0.6390   1.7814   4.0835   4.3768
     6.8768   7.3485   7.8243   8.4765   9.3108  12.7706  13.1446  14.7172
    20.1848  21.5632  22.6947

          k = 0.3709-0.2420 0.3709 (   846 PWs)   bands (ev):

    -7.8290  -4.9545  -3.7827  -1.2262   0.3522   2.3770   2.5328   5.2023
     6.9347   7.9543   8.0277   8.5757   9.3398  12.6198  13.2578  15.6946
    20.6276  20.7816  22.6944

          k =-0.3883 0.2246 0.3779 (   846 PWs)   bands (ev):

    -7.8027  -5.2517  -3.3517  -1.3120   0.5205   1.7099   2.8090   5.5701
     6.8730   7.4878   8.2769   8.5546   9.1937  12.5025  14.0131  15.2710
    20.5149  20.9759  22.6913

          k = 0.3918-0.2211-0.5276 (   854 PWs)   bands (ev):

    -7.4755  -5.2509  -3.7705  -1.2340   0.2319   1.4787   2.6178   5.6167
     7.4517   7.6519   8.0739   8.5894   9.2421  12.8255  13.8164  15.3245
    21.0972  21.6475  22.5498

          k = 0.3744-0.3918 0.3744 (   850 PWs)   bands (ev):

    -7.3392  -4.9277  -3.2915  -1.9605   0.0103   0.9126   1.3431   6.9538
     7.1942   7.6514   8.2838   8.9887   9.5837  13.0132  14.4687  15.8160
    20.8029  21.1692  22.7703

          k = 0.3953-0.3709-0.5241 (   866 PWs)   bands (ev):

    -7.0605  -4.7965  -3.5449  -1.7919  -0.4279   0.4390   1.0889   6.6686
     7.2692   8.2986   8.8074   8.8827   9.6379  13.2113  14.9170  15.7681
    21.2678  21.6876  22.1739

     the Fermi energy is    13.9318 ev

!    total energy              =     -88.06436224 Ry
     Harris-Foulkes estimate   =     -88.06436224 Ry
     estimated scf accuracy    <          1.3E-10 Ry

     The total energy is the sum of the following terms:

     one-electron contribution =      20.37738500 Ry
     hartree contribution      =      10.95714946 Ry
     xc contribution           =     -26.44194657 Ry
     ewald contribution        =     -92.95559565 Ry
     smearing contrib. (-TS)   =      -0.00135447 Ry

     convergence has been achieved in  11 iterations

     Forces acting on atoms (cartesian axes, Ry/au):

     atom    1 type  1   force =    -0.00222367   -0.03185438   -0.00222367
     atom    2 type  1   force =    -0.00597305   -0.00597305    0.04708059
     atom    3 type  1   force =     0.04708059   -0.00597305   -0.00597305
     atom    4 type  1   force =    -0.00597305    0.04708059   -0.00597305
     atom    5 type  1   force =    -0.03185438   -0.00222367   -0.00222367
     atom    6 type  1   force =    -0.00222367   -0.00222367   -0.03185438
     atom    7 type  2   force =     0.00116721    0.00116721    0.00116721

     Total force =     0.099708     Total SCF correction =     0.000020


     Computing stress (Cartesian axis) and pressure

          total   stress  (Ry/bohr**3)                   (kbar)     P=  347.80
   0.00236427   0.00005132   0.00005132        347.80      7.55      7.55
   0.00005132   0.00236427   0.00005132          7.55    347.80      7.55
   0.00005132   0.00005132   0.00236427          7.55      7.55    347.80


     number of scf cycles    =   2
     number of bfgs steps    =   1

     enthalpy old            =     -88.0198068137 Ry
     enthalpy new            =     -88.0643622429 Ry

     CASE: enthalpy_new < enthalpy_old

     new trust radius        =       0.0915053857 bohr
     new conv_thr            =       0.0000000100 Ry

     new unit-cell volume =    288.93160 a.u.^3 (    42.81524 Ang^3 )
     density =      3.33816 g/cm^3

CELL_PARAMETERS (alat=  6.74065312)
   0.981490349   0.027000483   0.027000483
   0.027000483   0.981490349   0.027000483
   0.027000483   0.027000483   0.981490349

ATOMIC_POSITIONS (alat)
C        0.259986830   0.750421651   0.259986830
C        0.014576927   0.014576927   0.503317298
C        0.503317298   0.014576927   0.014576927
C        0.014576927   0.503317298   0.014576927
C        0.750421651   0.259986830   0.259986830
C        0.259986830   0.259986830   0.750421651
N        0.785861823   0.785861823   0.785861823



     Writing output data file NV.save/
     NEW-OLD atomic charge density approx. for the potential
     extrapolated charge   31.26840, renormalised to   29.00000

     total cpu time spent up to now is       37.2 secs

     Self-consistent Calculation

     iteration #  1     ecut=    30.00 Ry     beta= 0.70
     Davidson diagonalization with overlap
     ethr =  1.00E-06,  avg # of iterations = 10.3

     total cpu time spent up to now is       41.5 secs

     total energy              =     -87.96278352 Ry
     Harris-Foulkes estimate   =     -88.96903736 Ry
     estimated scf accuracy    <       0.08592844 Ry

     iteration #  2     ecut=    30.00 Ry     beta= 0.70
     Davidson diagonalization with overlap
     ethr =  2.96E-04,  avg # of iterations =  4.1

     total cpu time spent up to now is       44.0 secs

     total energy              =     -88.07803528 Ry
     Harris-Foulkes estimate   =     -88.19696836 Ry
     estimated scf accuracy    <       0.33704986 Ry

     iteration #  3     ecut=    30.00 Ry     beta= 0.70
     Davidson diagonalization with overlap
     ethr =  2.96E-04,  avg # of iterations =  2.9

     total cpu time spent up to now is       45.7 secs

     total energy              =     -88.09512907 Ry
     Harris-Foulkes estimate   =     -88.10613027 Ry
     estimated scf accuracy    <       0.04513218 Ry

     iteration #  4     ecut=    30.00 Ry     beta= 0.70
     Davidson diagonalization with overlap
     ethr =  1.56E-04,  avg # of iterations =  1.0

     total cpu time spent up to now is       46.9 secs

     total energy              =     -88.09108969 Ry
     Harris-Foulkes estimate   =     -88.09652010 Ry
     estimated scf accuracy    <       0.01923259 Ry

     iteration #  5     ecut=    30.00 Ry     beta= 0.70
     Davidson diagonalization with overlap
     ethr =  6.63E-05,  avg # of iterations =  2.0

     total cpu time spent up to now is       48.2 secs

     total energy              =     -88.09119908 Ry
     Harris-Foulkes estimate   =     -88.09244281 Ry
     estimated scf accuracy    <       0.00384519 Ry

     iteration #  6     ecut=    30.00 Ry     beta= 0.70
     Davidson diagonalization with overlap
     ethr =  1.33E-05,  avg # of iterations =  3.8

     total cpu time spent up to now is       49.9 secs

     total energy              =     -88.09120072 Ry
     Harris-Foulkes estimate   =     -88.09151173 Ry
     estimated scf accuracy    <       0.00072795 Ry

     iteration #  7     ecut=    30.00 Ry     beta= 0.70
     Davidson diagonalization with overlap
     ethr =  2.51E-06,  avg # of iterations =  3.1

     total cpu time spent up to now is       52.3 secs

     total energy              =     -88.09135701 Ry
     Harris-Foulkes estimate   =     -88.09135547 Ry
     estimated scf accuracy    <       0.00000420 Ry

     iteration #  8     ecut=    30.00 Ry     beta= 0.70
     Davidson diagonalization with overlap
     ethr =  1.45E-08,  avg # of iterations =  3.0

     total cpu time spent up to now is       54.3 secs

     total energy              =     -88.09135278 Ry
     Harris-Foulkes estimate   =     -88.09136142 Ry
     estimated scf accuracy    <       0.00001846 Ry

     iteration #  9     ecut=    30.00 Ry     beta= 0.70
     Davidson diagonalization with overlap
     ethr =  1.45E-08,  avg # of iterations =  3.0

     total cpu time spent up to now is       56.1 secs

     total energy              =     -88.09135621 Ry
     Harris-Foulkes estimate   =     -88.09135622 Ry
     estimated scf accuracy    <       0.00000002 Ry

     iteration # 10     ecut=    30.00 Ry     beta= 0.70
     Davidson diagonalization with overlap
     ethr =  8.10E-11,  avg # of iterations =  3.0

     total cpu time spent up to now is       58.0 secs

     total energy              =     -88.09135623 Ry
     Harris-Foulkes estimate   =     -88.09135623 Ry
     estimated scf accuracy    <       0.00000002 Ry

     iteration # 11     ecut=    30.00 Ry     beta= 0.70
     Davidson diagonalization with overlap
     ethr =  5.30E-11,  avg # of iterations =  1.1

     total cpu time spent up to now is       59.4 secs

     End of self-consistent calculation

          k = 0.0690 0.0690 0.0690 (   844 PWs)   bands (ev):

   -10.4157  -3.7348  -2.1785  -2.1785   0.2015   0.2015   3.9599   3.9599
     5.4067   5.9431   6.1567   7.4767   7.4767  12.0636  14.9782  14.9782
    15.9804  16.7541  16.7541

          k = 0.0651 0.0651 0.2147 (   844 PWs)   bands (ev):

   -10.1315  -4.6066  -2.5412  -1.8914   0.2326   1.3861   3.3958   3.8504
     5.3425   6.0144   6.2360   7.1540   7.2058  11.2450  14.4540  14.5371
    16.5566  17.5944  18.3298

          k = 0.0612 0.0612 0.3605 (   848 PWs)   bands (ev):

    -9.6239  -5.9514  -2.2311  -1.5784   0.4162   2.1616   2.9121   3.5789
     4.9701   5.3093   6.4111   7.1690   7.8932  10.4717  13.3584  13.8190
    16.8291  18.9835  19.9232

          k = 0.0846 0.0846-0.5141 (   842 PWs)   bands (ev):

    -9.2469  -6.6910  -1.9836  -1.5496   0.7288   2.4438   2.8620   3.4931
     4.6253   4.6311   6.0742   7.2636   9.6872   9.8353  12.1752  13.5036
    16.9722  18.8843  21.6836

          k = 0.0612 0.2108 0.2108 (   845 PWs)   bands (ev):

    -9.8704  -4.4645  -3.6812  -1.7866   0.4773   1.9587   2.7967   4.2858
     4.5310   6.3308   6.4158   7.0864   7.4837  10.2800  13.9191  14.8414
    17.7478  17.9816  18.8626

          k = 0.0573 0.2069 0.3566 (   854 PWs)   bands (ev):

    -9.3853  -5.5943  -3.5152  -1.5087   0.3723   2.1035   2.6212   3.9210
     5.0194   5.6848   6.5664   7.2392   8.1086   9.6419  13.1859  14.2764
    18.1371  19.4140  20.0994

          k = 0.0807 0.2304-0.5180 (   842 PWs)   bands (ev):

    -8.9936  -6.4207  -3.2293  -1.4385   0.5384   1.9571   2.8697   3.6118
     4.9311   5.5764   6.2543   7.1228   9.0078   9.9601  12.4778  13.4897
    18.2444  19.6162  20.8520

          k = 0.0534 0.3527 0.3527 (   844 PWs)   bands (ev):

    -8.9370  -5.3245  -4.6713  -1.6958   0.3302   2.4007   2.4359   3.5076
     5.3805   5.5970   6.6059   7.8745   8.2182   9.4713  12.6179  14.4376
    19.4580  19.7297  20.8293

          k = 0.0768 0.3761-0.5219 (   844 PWs)   bands (ev):

    -8.5690  -5.9958  -4.4839  -1.9246   0.6539   2.1113   2.7456   3.3916
     4.6849   5.8020   6.9017   7.9235   8.3338  10.0042  12.4164  13.8289
    19.4636  20.1991  20.7146

          k = 0.1002-0.4985-0.4985 (   856 PWs)   bands (ev):

    -8.2905  -5.8054  -5.0197  -2.3542   1.1201   2.1019   2.5886   3.3276
     4.5679   5.4351   7.4553   8.1812   8.3957   9.9681  12.2044  14.0828
    19.4529  20.1200  21.3807

          k = 0.2069 0.2069 0.2069 (   844 PWs)   bands (ev):

    -9.6340  -4.1382  -3.3653  -3.3653   1.2132   1.2132   3.1568   3.9841
     3.9841   7.0228   7.0531   7.3743   7.3743   9.2386  14.6199  14.6199
    18.3513  18.8420  18.8420

          k = 0.2030 0.2030 0.3527 (   853 PWs)   bands (ev):

    -9.1743  -5.2103  -3.2197  -2.9520   0.4583   1.1331   2.5601   4.0121
     5.1782   6.9274   7.0479   7.4583   7.4689   9.2196  14.2368  14.2396
    18.8127  19.6525  20.0565

          k = 0.2265 0.2265-0.5219 (   852 PWs)   bands (ev):

    -8.7748  -6.1328  -2.8336  -2.7107   0.3349   0.7693   2.5655   4.1857
     5.6974   6.3152   6.4461   7.6688   7.7246  10.3190  13.0707  13.9499
    18.7896  20.0994  20.7265

          k = 0.1991 0.3488 0.3488 (   846 PWs)   bands (ev):

    -8.7558  -4.8573  -4.3684  -2.6353  -0.2277   1.0799   1.4712   4.7011
     6.1288   6.7382   6.9062   7.3300   7.9361   9.7533  13.9408  14.5578
    19.6677  19.8442  20.2602

          k = 0.2226 0.3722-0.5258 (   854 PWs)   bands (ev):

    -8.3866  -5.6656  -4.1092  -2.3969  -0.4224   0.6924   1.4546   4.9954
     6.1607   6.6798   6.9546   7.1205   8.1429  10.6953  13.4094  14.1573
    19.5908  20.1616  20.6172

          k = 0.2460-0.5024-0.5024 (   856 PWs)   bands (ev):

    -8.1001  -5.4720  -4.7432  -2.4077  -0.4082   0.5631   1.1131   5.2416
     6.1869   6.4989   6.7795   7.5593   8.5192  11.1177  13.0469  14.2870
    19.5925  20.1206  20.7123

          k = 0.3449 0.3449 0.3449 (   850 PWs)   bands (ev):

    -8.3881  -4.2630  -3.9217  -3.9217  -0.0897  -0.0897   0.1819   5.7728
     6.3479   6.3479   7.6120   7.6120   8.4170  10.3391  14.6052  14.6052
    19.9282  19.9421  19.9421

          k = 0.3683 0.3683-0.5297 (   866 PWs)   bands (ev):

    -8.0622  -5.1185  -3.7166  -3.3357  -0.6436  -0.4835   0.1901   5.5563
     6.5364   7.0222   7.4270   7.5819   8.6651  11.1601  14.1925  14.5121
    19.6844  20.1142  20.4000

          k = 0.3917-0.5063-0.5063 (   876 PWs)   bands (ev):

    -7.8244  -4.8348  -4.2926  -2.9968  -1.1847  -0.5699  -0.2105   5.2123
     6.8932   7.4642   7.4774   7.8033   8.9330  11.5885  14.2234  14.5777
    19.7715  20.0322  20.1177

          k =-0.4829-0.4829-0.4829 (   840 PWs)   bands (ev):

    -7.6823  -4.0187  -4.0187  -3.9039  -1.5125  -0.7888  -0.7888   4.7352
     7.5832   7.5832   7.9129   7.9129   9.2459  11.7482  14.7245  14.7245
    19.8969  19.8969  20.1414

          k = 0.0729-0.0768 0.0729 (   844 PWs)   bands (ev):

   -10.3954  -4.1083  -2.2706  -1.3595  -0.3155   0.3571   3.8098   4.1968
     5.4814   5.7503   6.4354   7.1200   7.5479  12.5017  14.3682  14.8978
    15.8560  16.4481  16.7934

          k = 0.0690-0.0807 0.2186 (   844 PWs)   bands (ev):

   -10.0924  -4.9051  -2.7437  -0.9259  -0.2700   1.5173   3.1812   4.1876
     5.1721   5.7574   6.5875   6.8208   7.3602  11.9885  13.4661  14.4191
    16.3729  17.1650  18.1361

          k =-0.2226 0.0768 0.0768 (   844 PWs)   bands (ev):

   -10.0739  -5.0863  -2.1347  -1.8222   0.6603   1.0710   3.4797   3.9046
     5.0444   5.7121   6.3684   7.1206   7.4205  12.2906  13.1945  14.3041
    16.3664  17.4311  17.4805

          k = 0.0651-0.0846 0.3644 (   848 PWs)   bands (ev):

    -9.5757  -6.0884  -2.6630  -0.5879   0.0030   2.3216   2.7514   3.9460
     4.3490   5.3984   6.5872   6.8210   8.2484  11.2059  12.5103  13.5628
    16.7275  18.7198  19.6407

          k =-0.3683 0.0807 0.0807 (   848 PWs)   bands (ev):

    -9.5499  -6.2081  -1.9285  -1.8314   0.8912   2.3401   3.0258   3.2629
     4.5428   5.1847   6.0514   7.3272   8.4848  11.4078  12.1143  13.7092
    16.7966  18.5549  19.4307

          k = 0.0885-0.0612-0.5102 (   842 PWs)   bands (ev):

    -9.2334  -6.6947  -2.5640  -0.4578   0.1889   2.1969   2.9156   3.9896
     4.0893   4.8755   6.5529   6.7610   9.5362  10.3683  12.0131  13.1446
    16.9128  18.9648  21.1216

          k = 0.2147-0.0846 0.2147 (   845 PWs)   bands (ev):

    -9.8122  -4.8737  -3.7521  -0.9191   0.0415   2.3554   2.3907   4.5332
     4.8998   5.4928   6.2317   7.3053   7.7031  11.2802  12.6241  14.6761
    17.3005  17.3178  18.8323

          k =-0.2265 0.0729 0.2226 (   845 PWs)   bands (ev):

    -9.7593  -5.3740  -3.2020  -1.3166   0.7669   2.0185   2.6745   4.0640
     4.8516   5.1733   6.4834   7.3805   7.8879  11.8261  12.4777  13.9412
    17.0737  17.4371  18.4570

          k = 0.2108-0.0885 0.3605 (   854 PWs)   bands (ev):

    -9.3169  -5.7604  -3.7789  -0.9357   0.3246   1.8969   2.8241   4.0441
     4.9681   5.5483   6.0518   7.4459   8.4349  10.5677  11.9698  14.0890
    17.6998  18.9393  20.0099

          k =-0.2304 0.0690 0.3683 (   854 PWs)   bands (ev):

    -9.2490  -6.0571  -3.5861  -0.9009   0.6633   1.8453   2.5475   4.2703
     4.7736   5.1521   6.3748   7.1185   8.8487  11.0158  12.1052  13.2041
    17.7034  18.4574  19.9930

          k =-0.3722 0.2265 0.0768 (   854 PWs)   bands (ev):

    -9.2437  -6.1394  -3.2821  -1.3926   0.9348   2.1013   2.6128   3.8596
     4.7013   5.1224   6.2893   7.3500   8.8758  10.8459  12.1191  13.4864
    17.8510  18.6408  19.4879

          k = 0.2343-0.0651-0.5141 (   842 PWs)   bands (ev):

    -8.9557  -6.4371  -3.5907  -0.9004   0.5899   1.6322   2.6498   4.0255
     5.1260   5.2992   6.3965   6.8848   9.2889  10.3999  11.9109  13.1447
    17.9576  19.6571  20.6964

          k = 0.3566-0.0924 0.3566 (   844 PWs)   bands (ev):

    -8.8592  -5.5548  -4.7074  -1.6129   0.5872   2.2200   2.8404   3.4199
     5.1123   5.3022   6.5885   8.0058   8.6786  10.0354  11.6332  14.3026
    19.0333  19.2310  20.5229

          k =-0.3761 0.0729 0.3722 (   844 PWs)   bands (ev):

    -8.7678  -6.0882  -4.2669  -1.4770   0.7029   1.9733   2.6598   3.7952
     4.5570   5.7621   6.3668   7.7657   8.7956  10.4242  12.3948  13.1486
    18.4830  19.4746  20.6449

          k = 0.3800-0.0690-0.5180 (   844 PWs)   bands (ev):

    -8.5235  -6.0417  -4.5977  -1.8773   0.8927   1.9462   2.9023   3.2981
     4.8131   5.4069   7.0297   7.9337   8.6642  10.1020  12.0116  13.7341
    19.2215  20.0182  20.6381

          k = 0.2186-0.2304 0.2186 (   844 PWs)   bands (ev):

    -9.4689  -5.3861  -3.5583  -1.9098   0.9185   2.0697   2.8583   3.8270
     4.1530   5.5512   6.9147   7.9128   8.1050  10.9229  12.2600  14.2654
    17.4189  17.5202  18.9755

          k = 0.2147-0.2343 0.3644 (   853 PWs)   bands (ev):

    -8.9821  -5.7914  -3.9657  -1.6089   0.2049   1.5465   2.9963   3.4272
     5.2040   5.9207   6.8885   7.7529   8.3100  10.8350  11.9612  13.8658
    17.9221  18.5434  20.0524

          k =-0.3761 0.2226 0.2226 (   853 PWs)   bands (ev):

    -8.9673  -6.0261  -3.1693  -2.3977   0.9004   1.0807   2.6994   4.2097
     4.5605   5.8175   6.8762   7.9028   8.2094  10.8077  12.2411  13.9614
    18.1709  18.7872  19.4627

          k = 0.2382-0.2108-0.5102 (   852 PWs)   bands (ev):

    -8.6698  -6.1973  -3.9781  -1.2818  -0.1398   0.9829   3.1218   3.4419
     5.8499   6.1968   6.6386   7.4413   8.2125  11.3612  11.7772  13.3380
    18.2023  19.7648  20.7779

          k = 0.3605-0.2382 0.3605 (   846 PWs)   bands (ev):

    -8.5417  -5.6096  -4.4673  -1.9647  -0.4115   1.5659   1.6824   4.1866
     5.9021   6.7487   6.7922   7.5215   8.2890  11.2556  11.8523  14.2442
    18.6793  19.0072  20.2745

          k =-0.3800 0.2186 0.3683 (   846 PWs)   bands (ev):

    -8.5240  -5.8730  -4.0554  -2.1014  -0.1516   0.8657   1.9382   4.5503
     5.7083   6.4015   7.1597   7.4417   8.1029  11.1656  12.5621  13.8414
    18.7212  19.0391  20.3804

          k = 0.3839-0.2147-0.5141 (   854 PWs)   bands (ev):

    -8.2649  -5.8163  -4.4748  -1.9964  -0.4672   0.6810   1.7807   4.5760
     6.3248   6.5017   7.0531   7.3682   8.1577  11.3995  12.4139  13.9167
    19.0593  19.8431  20.5631

          k = 0.3644-0.3839 0.3644 (   850 PWs)   bands (ev):

    -8.1455  -5.5505  -4.0358  -2.6414  -0.7099   0.2259   0.5767   5.8498
     6.2622   6.5080   7.0474   7.6285   8.5794  11.5734  13.0552  14.3383
    19.0721  19.1628  20.3333

          k = 0.3878-0.3605-0.5102 (   866 PWs)   bands (ev):

    -7.9327  -5.3800  -4.2765  -2.5170  -1.0922  -0.2381   0.3696   5.7650
     6.1625   7.1472   7.4757   7.5368   8.6474  11.7271  13.4856  14.3076
    19.2876  19.8534  20.3194

     the Fermi energy is    12.4847 ev

!    total energy              =     -88.09135623 Ry
     Harris-Foulkes estimate   =     -88.09135623 Ry
     estimated scf accuracy    <          4.3E-09 Ry

     The total energy is the sum of the following terms:

     one-electron contribution =      16.61021969 Ry
     hartree contribution      =      11.52136653 Ry
     xc contribution           =     -25.98865375 Ry
     ewald contribution        =     -90.23293500 Ry
     smearing contrib. (-TS)   =      -0.00135369 Ry

     convergence has been achieved in  11 iterations

     Forces acting on atoms (cartesian axes, Ry/au):

     atom    1 type  1   force =    -0.00351400    0.01311947   -0.00351400
     atom    2 type  1   force =    -0.00791541   -0.00791541   -0.00206066
     atom    3 type  1   force =    -0.00206066   -0.00791541   -0.00791541
     atom    4 type  1   force =    -0.00791541   -0.00206066   -0.00791541
     atom    5 type  1   force =     0.01311947   -0.00351400   -0.00351400
     atom    6 type  1   force =    -0.00351400   -0.00351400    0.01311947
     atom    7 type  2   force =     0.01180000    0.01180000    0.01180000

     Total force =     0.037374     Total SCF correction =     0.000110


     Computing stress (Cartesian axis) and pressure

          total   stress  (Ry/bohr**3)                   (kbar)     P=  -20.28
  -0.00013783  -0.00000962  -0.00000962        -20.28     -1.42     -1.42
  -0.00000962  -0.00013783  -0.00000962         -1.42    -20.28     -1.42
  -0.00000962  -0.00000962  -0.00013783         -1.42     -1.42    -20.28


     number of scf cycles    =   3
     number of bfgs steps    =   2

     enthalpy old            =     -88.0643622429 Ry
     enthalpy new            =     -88.0913562275 Ry

     CASE: enthalpy_new < enthalpy_old

     new trust radius        =       0.0209877891 bohr
     new conv_thr            =       0.0000000100 Ry

     new unit-cell volume =    288.33876 a.u.^3 (    42.72740 Ang^3 )
     density =      3.34502 g/cm^3

CELL_PARAMETERS (alat=  6.74065312)
   0.980814481   0.026904894   0.026904894
   0.026904894   0.980814481   0.026904894
   0.026904894   0.026904894   0.980814481

ATOMIC_POSITIONS (alat)
C        0.259285053   0.751386661   0.259285053
C        0.013357912   0.013357912   0.502888143
C        0.502888143   0.013357912   0.013357912
C        0.013357912   0.502888143   0.013357912
C        0.751386661   0.259285053   0.259285053
C        0.259285053   0.259285053   0.751386661
N        0.786999940   0.786999940   0.786999940



     Writing output data file NV.save/
     NEW-OLD atomic charge density approx. for the potential
     extrapolated charge   28.94037, renormalised to   29.00000

     total cpu time spent up to now is       61.0 secs

     Self-consistent Calculation

     iteration #  1     ecut=    30.00 Ry     beta= 0.70
     Davidson diagonalization with overlap
     ethr =  1.00E-06,  avg # of iterations =  6.1

     total cpu time spent up to now is       64.4 secs

     total energy              =     -88.09175997 Ry
     Harris-Foulkes estimate   =     -88.07029080 Ry
     estimated scf accuracy    <       0.00046671 Ry

     iteration #  2     ecut=    30.00 Ry     beta= 0.70
     Davidson diagonalization with overlap
     ethr =  1.61E-06,  avg # of iterations =  3.7

     total cpu time spent up to now is       66.6 secs

     total energy              =     -88.09190245 Ry
     Harris-Foulkes estimate   =     -88.09230537 Ry
     estimated scf accuracy    <       0.00095999 Ry

     iteration #  3     ecut=    30.00 Ry     beta= 0.70
     Davidson diagonalization with overlap
     ethr =  1.61E-06,  avg # of iterations =  2.4

     total cpu time spent up to now is       68.2 secs

     total energy              =     -88.09205603 Ry
     Harris-Foulkes estimate   =     -88.09206258 Ry
     estimated scf accuracy    <       0.00001376 Ry

     iteration #  4     ecut=    30.00 Ry     beta= 0.70
     Davidson diagonalization with overlap
     ethr =  4.75E-08,  avg # of iterations =  2.0

     total cpu time spent up to now is       69.8 secs

     total energy              =     -88.09205864 Ry
     Harris-Foulkes estimate   =     -88.09205980 Ry
     estimated scf accuracy    <       0.00000268 Ry

     iteration #  5     ecut=    30.00 Ry     beta= 0.70
     Davidson diagonalization with overlap
     ethr =  9.25E-09,  avg # of iterations =  2.0

     total cpu time spent up to now is       71.3 secs

     total energy              =     -88.09205917 Ry
     Harris-Foulkes estimate   =     -88.09205922 Ry
     estimated scf accuracy    <       0.00000010 Ry

     iteration #  6     ecut=    30.00 Ry     beta= 0.70
     Davidson diagonalization with overlap
     ethr =  3.50E-10,  avg # of iterations =  2.2

     total cpu time spent up to now is       73.0 secs

     total energy              =     -88.09205920 Ry
     Harris-Foulkes estimate   =     -88.09205920 Ry
     estimated scf accuracy    <       0.00000002 Ry

     iteration #  7     ecut=    30.00 Ry     beta= 0.70
     Davidson diagonalization with overlap
     ethr =  5.63E-11,  avg # of iterations =  2.0

     total cpu time spent up to now is       74.3 secs

     End of self-consistent calculation

          k = 0.0690 0.0690 0.0690 (   844 PWs)   bands (ev):

   -10.4741  -3.7843  -2.2039  -2.2039   0.1984   0.1984   3.9752   3.9752
     5.4149   5.9818   6.1499   7.4074   7.4074  12.1545  15.0236  15.0236
    16.0627  16.8102  16.8102

          k = 0.0651 0.0651 0.2149 (   844 PWs)   bands (ev):

   -10.1930  -4.6412  -2.5676  -1.9204   0.2304   1.3564   3.4214   3.8785
     5.3667   6.0001   6.2591   7.0965   7.1364  11.3389  14.5169  14.5770
    16.6257  17.6583  18.3580

          k = 0.0612 0.0612 0.3608 (   848 PWs)   bands (ev):

    -9.6943  -5.9696  -2.2590  -1.6142   0.4231   2.1097   2.9387   3.6079
     4.9786   5.2820   6.3923   7.1077   7.9263  10.5628  13.3973  13.8929
    16.8820  19.0941  19.9644

          k = 0.0846 0.0846-0.5144 (   842 PWs)   bands (ev):

    -9.3293  -6.6956  -2.0087  -1.5873   0.7501   2.4190   2.8708   3.4459
     4.6005   4.6453   6.0972   7.2037   9.7669   9.8777  12.2233  13.5807
    17.0174  18.9988  21.7206

          k = 0.0612 0.2110 0.2110 (   845 PWs)   bands (ev):

    -9.9347  -4.5060  -3.6972  -1.8064   0.4499   1.9190   2.8325   4.3391
     4.5647   6.3156   6.3885   7.0575   7.4158  10.3757  13.9855  14.8870
    17.8302  18.0192  18.8568

          k = 0.0574 0.2071 0.3569 (   854 PWs)   bands (ev):

    -9.4580  -5.6163  -3.5431  -1.5153   0.3360   2.0872   2.6278   3.9475
     5.0722   5.6436   6.5210   7.1903   8.1312   9.7325  13.2523  14.3268
    18.1807  19.4865  20.1700

          k = 0.0807 0.2305-0.5183 (   842 PWs)   bands (ev):

    -9.0791  -6.4278  -3.2593  -1.4360   0.5050   1.9613   2.8533   3.6148
     4.9129   5.5630   6.2393   7.0978   9.0767  10.0208  12.5258  13.5573
    18.2804  19.7317  20.9367

          k = 0.0535 0.3530 0.3530 (   844 PWs)   bands (ev):

    -9.0176  -5.3555  -4.6861  -1.6673   0.2630   2.4013   2.4061   3.5525
     5.3305   5.6331   6.5727   7.8369   8.2808   9.5312  12.6841  14.4874
    19.4976  19.7821  20.8753

          k = 0.0768 0.3763-0.5222 (   844 PWs)   bands (ev):

    -8.6625  -6.0087  -4.5061  -1.8861   0.5808   2.1192   2.7152   3.3995
     4.6809   5.7945   6.8409   7.9412   8.4140  10.0653  12.4653  13.8834
    19.5417  20.2156  20.7725

          k = 0.1002-0.4988-0.4988 (   856 PWs)   bands (ev):

    -8.3927  -5.8220  -5.0343  -2.3088   1.0494   2.1165   2.5623   3.2696
     4.6037   5.4257   7.4045   8.2688   8.4122  10.0396  12.2413  14.1361
    19.5383  20.1309  21.4243

          k = 0.2071 0.2071 0.2071 (   844 PWs)   bands (ev):

    -9.7004  -4.1847  -3.3823  -3.3823   1.1793   1.1793   3.1905   4.0403
     4.0403   7.0103   7.0725   7.2915   7.2915   9.3280  14.6818  14.6818
    18.4343  18.8268  18.8268

          k = 0.2032 0.2032 0.3530 (   853 PWs)   bands (ev):

    -9.2485  -5.2347  -3.2500  -2.9715   0.4391   1.1185   2.5730   4.0574
     5.2265   6.8688   6.9814   7.4268   7.5186   9.2713  14.2920  14.3110
    18.8270  19.7030  20.0312

          k = 0.2266 0.2266-0.5222 (   852 PWs)   bands (ev):

    -8.8622  -6.1424  -2.8549  -2.7386   0.3262   0.7790   2.5524   4.2156
     5.6365   6.2654   6.4867   7.6785   7.7504  10.3679  13.1193  14.0219
    18.8033  20.2082  20.8003

          k = 0.1993 0.3491 0.3491 (   846 PWs)   bands (ev):

    -8.8372  -4.8912  -4.3839  -2.6497  -0.2477   1.0585   1.5015   4.7332
     6.1790   6.7583   6.9018   7.2506   7.9116   9.7838  14.0092  14.6165
    19.6969  19.8159  20.2846

          k = 0.2227 0.3725-0.5261 (   854 PWs)   bands (ev):

    -8.4807  -5.6811  -4.1326  -2.3968  -0.4512   0.7132   1.4468   4.9900
     6.1379   6.7445   6.9710   7.0653   8.1375  10.7354  13.4652  14.2185
    19.6109  20.2055  20.6785

          k = 0.2461-0.5027-0.5027 (   856 PWs)   bands (ev):

    -8.2033  -5.4921  -4.7586  -2.3809  -0.4566   0.5938   1.0981   5.1596
     6.2317   6.5903   6.7339   7.5453   8.5182  11.1631  13.0984  14.3413
    19.6784  20.1258  20.7439

          k = 0.3452 0.3452 0.3452 (   850 PWs)   bands (ev):

    -8.4754  -4.3060  -3.9391  -3.9391  -0.1020  -0.1020   0.2233   5.8667
     6.3787   6.3787   7.5401   7.5401   8.3901  10.3620  14.6679  14.6679
    19.9025  19.9025  20.0160

          k = 0.3686 0.3686-0.5300 (   866 PWs)   bands (ev):

    -8.1605  -5.1393  -3.7355  -3.3672  -0.6076  -0.4909   0.1868   5.6496
     6.5454   6.9266   7.3761   7.6437   8.6323  11.1888  14.2475  14.5730
    19.6688  20.1884  20.4721

          k = 0.3919-0.5066-0.5066 (   876 PWs)   bands (ev):

    -7.9294  -4.8622  -4.3097  -3.0226  -1.1501  -0.5628  -0.2198   5.3082
     6.7943   7.3580   7.5260   7.8826   8.9002  11.6165  14.2780  14.6320
    19.8515  20.0133  20.1480

          k =-0.4833-0.4833-0.4833 (   840 PWs)   bands (ev):

    -7.7886  -4.0373  -4.0373  -3.9591  -1.4443  -0.7954  -0.7954   4.8345
     7.4600   7.4600   7.9986   7.9986   9.2055  11.7702  14.7781  14.7781
    19.8526  19.8526  20.2397

          k = 0.0729-0.0768 0.0729 (   844 PWs)   bands (ev):

   -10.4543  -4.1536  -2.2955  -1.3893  -0.3130   0.3576   3.8104   4.2003
     5.4874   5.7432   6.4705   7.0742   7.4867  12.5912  14.4159  14.9405
    15.9388  16.5189  16.8450

          k = 0.0690-0.0807 0.2188 (   844 PWs)   bands (ev):

   -10.1549  -4.9396  -2.7677  -0.9527  -0.2656   1.5017   3.1784   4.1858
     5.1638   5.7455   6.6168   6.8129   7.3105  12.0806  13.5186  14.4658
    16.4465  17.2444  18.1764

          k =-0.2227 0.0768 0.0768 (   844 PWs)   bands (ev):

   -10.1369  -5.1193  -2.1618  -1.8375   0.6692   1.0527   3.4571   3.8952
     5.0399   5.6901   6.3815   7.1639   7.3632  12.3826  13.2367  14.3620
    16.4383  17.4883  17.5552

          k = 0.0651-0.0846 0.3647 (   848 PWs)   bands (ev):

    -9.6477  -6.1059  -2.6935  -0.6190   0.0262   2.2785   2.7551   3.9133
     4.3615   5.3862   6.5877   6.7916   8.2827  11.2881  12.5619  13.6238
    16.7870  18.8344  19.7044

          k =-0.3686 0.0807 0.0807 (   848 PWs)   bands (ev):

    -9.6229  -6.2243  -1.9487  -1.8634   0.9129   2.3497   2.9492   3.2496
     4.5337   5.1668   6.0975   7.2688   8.5346  11.4808  12.1644  13.7801
    16.8488  18.6563  19.5133

          k = 0.0885-0.0612-0.5105 (   842 PWs)   bands (ev):

    -9.3163  -6.6993  -2.5977  -0.4908   0.2287   2.1391   2.9204   3.9585
     4.0757   4.8821   6.5633   6.7235   9.6082  10.4060  12.0714  13.2166
    16.9652  19.0872  21.2407

          k = 0.2149-0.0846 0.2149 (   845 PWs)   bands (ev):

    -9.8780  -4.9133  -3.7682  -0.9189   0.0282   2.3312   2.3778   4.5291
     4.8616   5.5087   6.2624   7.3190   7.6463  11.3760  12.6851  14.7146
    17.3773  17.4100  18.8375

          k =-0.2266 0.0729 0.2227 (   845 PWs)   bands (ev):

    -9.8267  -5.4059  -3.2188  -1.3241   0.7604   2.0238   2.6355   4.0302
     4.8484   5.1462   6.4956   7.3680   7.9209  11.9047  12.5372  13.9967
    17.1574  17.5083  18.4952

          k = 0.2110-0.0885 0.3608 (   854 PWs)   bands (ev):

    -9.3918  -5.7825  -3.8053  -0.9225   0.3280   1.8513   2.7979   4.0061
     4.9466   5.5692   6.0870   7.4009   8.4669  10.6584  12.0313  14.1316
    17.7703  19.0483  20.0362

          k =-0.2305 0.0690 0.3686 (   854 PWs)   bands (ev):

    -9.3268  -6.0756  -3.6084  -0.8879   0.6665   1.7653   2.5715   4.2775
     4.6941   5.1280   6.3845   7.1356   8.9052  11.0779  12.1670  13.2616
    17.7708  18.5450  20.0663

          k =-0.3725 0.2266 0.0768 (   854 PWs)   bands (ev):

    -9.3219  -6.1562  -3.3036  -1.3973   0.9274   2.0911   2.5979   3.8286
     4.6919   5.0732   6.3166   7.3316   8.9375  10.9080  12.1755  13.5522
    17.9117  18.7130  19.5650

          k = 0.2344-0.0651-0.5144 (   842 PWs)   bands (ev):

    -9.0427  -6.4442  -3.6207  -0.8733   0.5966   1.5611   2.6345   4.0128
     5.0815   5.2836   6.4189   6.8838   9.3627  10.4550  11.9646  13.2004
    18.0168  19.7901  20.8151

          k = 0.3569-0.0924 0.3569 (   844 PWs)   bands (ev):

    -8.9428  -5.5835  -4.7222  -1.5827   0.5932   2.1448   2.8143   3.3805
     5.0805   5.3459   6.6240   7.9590   8.7324  10.1221  11.6840  14.3467
    19.1322  19.3020  20.5669

          k =-0.3763 0.0729 0.3725 (   844 PWs)   bands (ev):

    -8.8568  -6.1036  -4.2841  -1.4461   0.6575   1.9474   2.6586   3.7495
     4.5944   5.6974   6.3385   7.7966   8.8778  10.4879  12.4370  13.2091
    18.5718  19.5221  20.6865

          k = 0.3802-0.0690-0.5183 (   844 PWs)   bands (ev):

    -8.6193  -6.0542  -4.6184  -1.8376   0.8695   1.9114   2.8581   3.2591
     4.8552   5.3815   6.9998   7.9450   8.7467  10.1743  12.0504  13.7849
    19.3204  20.0700  20.6768

          k = 0.2188-0.2305 0.2188 (   844 PWs)   bands (ev):

    -9.5402  -5.4191  -3.5754  -1.9159   0.9637   2.0652   2.7620   3.8002
     4.1178   5.5706   6.9468   7.8597   8.1627  10.9937  12.3252  14.3149
    17.5055  17.6080  18.9916

          k = 0.2149-0.2344 0.3647 (   853 PWs)   bands (ev):

    -9.0634  -5.8141  -3.9865  -1.6127   0.2537   1.5213   2.9406   3.3721
     5.1366   5.9627   6.9300   7.7214   8.3804  10.8875  12.0223  13.9150
    18.0020  18.6416  20.0810

          k =-0.3763 0.2227 0.2227 (   853 PWs)   bands (ev):

    -9.0500  -6.0432  -3.1886  -2.4148   0.9340   1.0759   2.6542   4.2065
     4.4882   5.8009   6.9250   7.8516   8.2911  10.8649  12.2928  14.0251
    18.2287  18.8788  19.5049

          k = 0.2383-0.2110-0.5105 (   852 PWs)   bands (ev):

    -8.7619  -6.2067  -4.0043  -1.2791  -0.0957   0.9552   3.0785   3.3734
     5.7502   6.2457   6.6913   7.4289   8.2973  11.4164  11.8195  13.3929
    18.2731  19.9130  20.9244

          k = 0.3608-0.2383 0.3608 (   846 PWs)   bands (ev):

    -8.6324  -5.6348  -4.4828  -1.9631  -0.3723   1.5543   1.6467   4.0929
     5.8184   6.8025   6.8637   7.6100   8.2375  11.3076  11.9048  14.2914
    18.7863  19.0836  20.3030

          k =-0.3802 0.2188 0.3686 (   846 PWs)   bands (ev):

    -8.6166  -5.8897  -4.0730  -2.1064  -0.1455   0.8805   1.9079   4.4747
     5.7235   6.3361   7.1999   7.5228   8.0946  11.2200  12.6066  13.9009
    18.8094  19.0961  20.4156

          k = 0.3841-0.2149-0.5144 (   854 PWs)   bands (ev):

    -8.3654  -5.8303  -4.4937  -1.9809  -0.4631   0.6779   1.7573   4.4806
     6.3495   6.4532   7.1301   7.4156   8.1445  11.4561  12.4550  13.9693
    19.1561  19.9201  20.5947

          k = 0.3647-0.3841 0.3647 (   850 PWs)   bands (ev):

    -8.2456  -5.5691  -4.0530  -2.6627  -0.6605   0.2178   0.5537   5.7526
     6.3439   6.4442   7.0813   7.7016   8.5357  11.6168  13.1036  14.3934
    19.1795  19.1992  20.3749

          k = 0.3880-0.3608-0.5105 (   866 PWs)   bands (ev):

    -8.0386  -5.3987  -4.2937  -2.5401  -1.0433  -0.2479   0.3553   5.8290
     6.0836   7.0293   7.5547   7.6120   8.6134  11.7653  13.5340  14.3618
    19.3833  19.9121  20.3216

     the Fermi energy is    12.5377 ev

!    total energy              =     -88.09205920 Ry
     Harris-Foulkes estimate   =     -88.09205920 Ry
     estimated scf accuracy    <          7.5E-10 Ry

     The total energy is the sum of the following terms:

     one-electron contribution =      16.29321102 Ry
     hartree contribution      =      11.69330282 Ry
     xc contribution           =     -26.01846977 Ry
     ewald contribution        =     -90.05877974 Ry
     smearing contrib. (-TS)   =      -0.00132353 Ry

     convergence has been achieved in   7 iterations

     Forces acting on atoms (cartesian axes, Ry/au):

     atom    1 type  1   force =    -0.00346152    0.00322785   -0.00346152
     atom    2 type  1   force =     0.00249367    0.00249367   -0.00134292
     atom    3 type  1   force =    -0.00134292    0.00249367    0.00249367
     atom    4 type  1   force =     0.00249367   -0.00134292    0.00249367
     atom    5 type  1   force =     0.00322785   -0.00346152   -0.00346152
     atom    6 type  1   force =    -0.00346152   -0.00346152    0.00322785
     atom    7 type  2   force =     0.00005077    0.00005077    0.00005077

     Total force =     0.012078     Total SCF correction =     0.000042


     Computing stress (Cartesian axis) and pressure

          total   stress  (Ry/bohr**3)                   (kbar)     P=   -1.02
  -0.00000691  -0.00001762  -0.00001762         -1.02     -2.59     -2.59
  -0.00001762  -0.00000691  -0.00001762         -2.59     -1.02     -2.59
  -0.00001762  -0.00001762  -0.00000691         -2.59     -2.59     -1.02


     number of scf cycles    =   4
     number of bfgs steps    =   3

     enthalpy old            =     -88.0913562275 Ry
     enthalpy new            =     -88.0920591967 Ry

     CASE: enthalpy_new < enthalpy_old

     new trust radius        =       0.0067405419 bohr
     new conv_thr            =       0.0000000035 Ry

     new unit-cell volume =    288.37304 a.u.^3 (    42.73247 Ang^3 )
     density =      3.34462 g/cm^3

CELL_PARAMETERS (alat=  6.74065312)
   0.980831392   0.026491712   0.026491712
   0.026491712   0.980831392   0.026491712
   0.026491712   0.026491712   0.980831392

ATOMIC_POSITIONS (alat)
C        0.258299802   0.751775706   0.258299802
C        0.013395023   0.013395023   0.502770524
C        0.502770524   0.013395023   0.013395023
C        0.013395023   0.502770524   0.013395023
C        0.751775706   0.258299802   0.258299802
C        0.258299802   0.258299802   0.751775706
N        0.786601160   0.786601160   0.786601160



     Writing output data file NV.save/
     NEW-OLD atomic charge density approx. for the potential
     extrapolated charge   29.00345, renormalised to   29.00000

     total cpu time spent up to now is       76.0 secs

     Self-consistent Calculation

     iteration #  1     ecut=    30.00 Ry     beta= 0.70
     Davidson diagonalization with overlap
     ethr =  1.00E-06,  avg # of iterations =  3.6

     Threshold (ethr) on eigenvalues was too large:
     Diagonalizing with lowered threshold

     Davidson diagonalization with overlap
     ethr =  5.10E-08,  avg # of iterations =  2.1

     total cpu time spent up to now is       79.5 secs

     total energy              =     -88.09215345 Ry
     Harris-Foulkes estimate   =     -88.09341554 Ry
     estimated scf accuracy    <       0.00001504 Ry

     iteration #  2     ecut=    30.00 Ry     beta= 0.70
     Davidson diagonalization with overlap
     ethr =  5.18E-08,  avg # of iterations =  2.9

     total cpu time spent up to now is       81.2 secs

     total energy              =     -88.09215447 Ry
     Harris-Foulkes estimate   =     -88.09216023 Ry
     estimated scf accuracy    <       0.00001067 Ry

     iteration #  3     ecut=    30.00 Ry     beta= 0.70
     Davidson diagonalization with overlap
     ethr =  3.68E-08,  avg # of iterations =  2.2

     total cpu time spent up to now is       82.8 secs

     total energy              =     -88.09215725 Ry
     Harris-Foulkes estimate   =     -88.09215785 Ry
     estimated scf accuracy    <       0.00000139 Ry

     iteration #  4     ecut=    30.00 Ry     beta= 0.70
     Davidson diagonalization with overlap
     ethr =  4.80E-09,  avg # of iterations =  2.0

     total cpu time spent up to now is       84.1 secs

     total energy              =     -88.09215752 Ry
     Harris-Foulkes estimate   =     -88.09215753 Ry
     estimated scf accuracy    <       0.00000002 Ry

     iteration #  5     ecut=    30.00 Ry     beta= 0.70
     Davidson diagonalization with overlap
     ethr =  7.43E-11,  avg # of iterations =  2.4

     total cpu time spent up to now is       85.8 secs

     End of self-consistent calculation

          k = 0.0691 0.0691 0.0691 (   844 PWs)   bands (ev):

   -10.4785  -3.7865  -2.2190  -2.2190   0.1819   0.1819   3.9651   3.9651
     5.4163   5.9592   6.1297   7.3897   7.3897  12.1658  15.0130  15.0130
    16.0327  16.8101  16.8101

          k = 0.0653 0.0653 0.2149 (   844 PWs)   bands (ev):

   -10.1966  -4.6491  -2.5805  -1.9372   0.2173   1.3490   3.4079   3.8594
     5.3424   5.9810   6.2630   7.0809   7.1204  11.3572  14.5112  14.5681
    16.6113  17.6378  18.3514

          k = 0.0614 0.0614 0.3608 (   848 PWs)   bands (ev):

    -9.6964  -5.9812  -2.2702  -1.6311   0.4106   2.1104   2.9220   3.5786
     4.9605   5.2666   6.3753   7.0920   7.9299  10.5803  13.3940  13.8922
    16.8731  19.0917  19.9464

          k = 0.0844 0.0844-0.5143 (   842 PWs)   bands (ev):

    -9.3298  -6.7086  -2.0194  -1.6014   0.7307   2.4126   2.8550   3.4251
     4.5895   4.6321   6.0775   7.1874   9.7799   9.8742  12.2288  13.5830
    17.0056  19.0105  21.7019

          k = 0.0614 0.2111 0.2111 (   845 PWs)   bands (ev):

    -9.9372  -4.5139  -3.7150  -1.8249   0.4496   1.9203   2.8085   4.3093
     4.5375   6.2976   6.3827   7.0559   7.4037  10.3990  13.9812  14.8765
    17.7957  18.0145  18.8454

          k = 0.0576 0.2073 0.3570 (   854 PWs)   bands (ev):

    -9.4585  -5.6298  -3.5588  -1.5340   0.3399   2.0824   2.6065   3.9197
     5.0419   5.6288   6.5044   7.1838   8.1403   9.7512  13.2514  14.3191
    18.1678  19.4598  20.1732

          k = 0.0806 0.2303-0.5182 (   842 PWs)   bands (ev):

    -9.0778  -6.4425  -3.2747  -1.4524   0.5030   1.9476   2.8298   3.5981
     4.9067   5.5310   6.2268   7.0890   9.0927  10.0238  12.5233  13.5579
    18.2645  19.7395  20.9399

          k = 0.0537 0.3531 0.3531 (   844 PWs)   bands (ev):

    -9.0152  -5.3724  -4.7041  -1.6779   0.2591   2.3790   2.4050   3.5198
     5.3225   5.6140   6.5368   7.8328   8.3040   9.5412  12.6867  14.4773
    19.4721  19.7654  20.8601

          k = 0.0768 0.3761-0.5220 (   844 PWs)   bands (ev):

    -8.6573  -6.0281  -4.5246  -1.8931   0.5695   2.1054   2.7018   3.3699
     4.6775   5.7827   6.8028   7.9367   8.4338  10.0740  12.4674  13.8763
    19.5250  20.2011  20.7593

          k = 0.0998-0.4990-0.4990 (   856 PWs)   bands (ev):

    -8.3839  -5.8478  -5.0522  -2.3101   1.0279   2.0980   2.5613   3.2402
     4.5943   5.4208   7.3598   8.2874   8.4071  10.0562  12.2444  14.1273
    19.5224  20.1128  21.4123

[...]
        k(   32) = (   0.2340029  -0.0652212  -0.5140572), wk =   0.0699708
        k(   33) = (   0.3567773  -0.0920588   0.3567773), wk =   0.0349854
        k(   34) = (  -0.3759470   0.0728890   0.3721131), wk =   0.0699708
        k(   35) = (   0.3797810  -0.0690551  -0.5178912), wk =   0.0699708
        k(   36) = (   0.2186671  -0.2301690   0.2186671), wk =   0.0349854
        k(   37) = (   0.2148332  -0.2340029   0.3644452), wk =   0.0699708
        k(   38) = (  -0.3759470   0.2225011   0.2225011), wk =   0.0349854
        k(   39) = (   0.2378369  -0.2109992  -0.5102233), wk =   0.0349854
        k(   40) = (   0.3606113  -0.2378369   0.3606113), wk =   0.0349854
        k(   41) = (  -0.3797810   0.2186671   0.3682792), wk =   0.0699708
        k(   42) = (   0.3836149  -0.2148332  -0.5140572), wk =   0.0699708
        k(   43) = (   0.3644452  -0.3836149   0.3644452), wk =   0.0349854
        k(   44) = (   0.3874489  -0.3606113  -0.5102233), wk =   0.0349854

     Dense  grid:     8991 G-vectors     FFT dimensions: (  25,  25,  25)

     Smooth grid:     6411 G-vectors     FFT dimensions: (  24,  24,  24)

     Estimated max dynamical RAM per process >      26.13 MB

     Initial potential from superposition of free atoms

     starting charge   28.99979, renormalised to   29.00000
     Starting wfcs are   28 randomized atomic wfcs

     total cpu time spent up to now is      142.0 secs

     Self-consistent Calculation

     iteration #  1     ecut=    30.00 Ry     beta= 0.70
     Davidson diagonalization with overlap
     c_bands:  1 eigenvalues not converged
     ethr =  1.00E-06,  avg # of iterations = 11.3

     total cpu time spent up to now is      146.8 secs

     total energy              =     -88.03403812 Ry
     Harris-Foulkes estimate   =     -88.25942909 Ry
     estimated scf accuracy    <       0.40971272 Ry

     iteration #  2     ecut=    30.00 Ry     beta= 0.70
     Davidson diagonalization with overlap
     ethr =  1.41E-03,  avg # of iterations =  2.0

     total cpu time spent up to now is      148.3 secs

     total energy              =     -88.06321407 Ry
     Harris-Foulkes estimate   =     -88.10922927 Ry
     estimated scf accuracy    <       0.06772172 Ry

     iteration #  3     ecut=    30.00 Ry     beta= 0.70
     Davidson diagonalization with overlap
     ethr =  2.34E-04,  avg # of iterations =  2.8

     total cpu time spent up to now is      149.9 secs

     total energy              =     -88.08317586 Ry
     Harris-Foulkes estimate   =     -88.10606602 Ry
     estimated scf accuracy    <       0.04987863 Ry

     iteration #  4     ecut=    30.00 Ry     beta= 0.70
     Davidson diagonalization with overlap
     ethr =  1.72E-04,  avg # of iterations =  2.0

     total cpu time spent up to now is      151.2 secs

     total energy              =     -88.09185138 Ry
     Harris-Foulkes estimate   =     -88.09197615 Ry
     estimated scf accuracy    <       0.00030412 Ry

     iteration #  5     ecut=    30.00 Ry     beta= 0.70
     Davidson diagonalization with overlap
     ethr =  1.05E-06,  avg # of iterations =  4.8

     total cpu time spent up to now is      153.5 secs

     total energy              =     -88.09202838 Ry
     Harris-Foulkes estimate   =     -88.09207832 Ry
     estimated scf accuracy    <       0.00010471 Ry

     iteration #  6     ecut=    30.00 Ry     beta= 0.70
     Davidson diagonalization with overlap
     ethr =  3.61E-07,  avg # of iterations =  2.0

     total cpu time spent up to now is      155.5 secs

     total energy              =     -88.09204476 Ry
     Harris-Foulkes estimate   =     -88.09204890 Ry
     estimated scf accuracy    <       0.00000579 Ry

     iteration #  7     ecut=    30.00 Ry     beta= 0.70
     Davidson diagonalization with overlap
     ethr =  2.00E-08,  avg # of iterations =  2.0

     total cpu time spent up to now is      156.8 secs

     total energy              =     -88.09204570 Ry
     Harris-Foulkes estimate   =     -88.09204573 Ry
     estimated scf accuracy    <       0.00000006 Ry

     iteration #  8     ecut=    30.00 Ry     beta= 0.70
     Davidson diagonalization with overlap
     ethr =  2.16E-10,  avg # of iterations =  3.0

     total cpu time spent up to now is      158.6 secs

     total energy              =     -88.09204574 Ry
     Harris-Foulkes estimate   =     -88.09204575 Ry
     estimated scf accuracy    <       0.00000002 Ry

     iteration #  9     ecut=    30.00 Ry     beta= 0.70
     Davidson diagonalization with overlap
     ethr =  5.60E-11,  avg # of iterations =  2.0

     total cpu time spent up to now is      160.0 secs

     total energy              =     -88.09204574 Ry
     Harris-Foulkes estimate   =     -88.09204574 Ry
     estimated scf accuracy    <          9.8E-10 Ry

     iteration # 10     ecut=    30.00 Ry     beta= 0.70
     Davidson diagonalization with overlap
     ethr =  3.38E-12,  avg # of iterations =  2.3

     total cpu time spent up to now is      161.6 secs

     End of self-consistent calculation

          k = 0.0691 0.0691 0.0691 (   790 PWs)   bands (ev):

   -10.4928  -3.8192  -2.2453  -2.2453   0.1560   0.1560   3.9429   3.9429
     5.3967   5.9187   6.0999   7.3548   7.3548  12.1226  14.9860  14.9860
    15.9833  16.7696  16.7696

          k = 0.0652 0.0652 0.2148 (   797 PWs)   bands (ev):

   -10.2108  -4.6784  -2.6092  -1.9663   0.1941   1.3260   3.3850   3.8283
     5.2982   5.9496   6.2486   7.0481   7.0896  11.3270  14.4890  14.5433
    16.5642  17.5898  18.3038

          k = 0.0614 0.0614 0.3606 (   799 PWs)   bands (ev):

    -9.7102  -6.0083  -2.3007  -1.6640   0.3916   2.0946   2.8977   3.5354
     4.9258   5.2356   6.3377   7.0638   7.9176  10.5512  13.3743  13.8773
    16.8337  19.0510  19.9068

          k = 0.0844 0.0844-0.5141 (   804 PWs)   bands (ev):

    -9.3428  -6.7360  -2.0502  -1.6343   0.7112   2.3910   2.8297   3.3959
     4.5612   4.5931   6.0394   7.1582   9.7580   9.8541  12.2063  13.5722
    16.9676  18.9781  21.6406

          k = 0.0614 0.2110 0.2110 (   797 PWs)   bands (ev):

    -9.9513  -4.5468  -3.7392  -1.8563   0.4336   1.9027   2.7765   4.2730
     4.4914   6.2656   6.3599   7.0378   7.3758  10.3765  13.9609  14.8499
    17.7393  17.9713  18.7952

          k = 0.0576 0.2072 0.3568 (   799 PWs)   bands (ev):

    -9.4720  -5.6595  -3.5876  -1.5670   0.3312   2.0617   2.5741   3.8771
     5.0009   5.5966   6.4705   7.1630   8.1377   9.7211  13.2346  14.2971
    18.1227  19.4084  20.1405

          k = 0.0806 0.2302-0.5179 (   801 PWs)   bands (ev):

    -9.0899  -6.4726  -3.3050  -1.4835   0.4925   1.9225   2.7914   3.5718
     4.8768   5.4823   6.1968   7.0654   9.0896   9.9945  12.4949  13.5473
    18.2178  19.7020  20.9059

          k = 0.0537 0.3529 0.3529 (   791 PWs)   bands (ev):

    -9.0273  -5.4116  -4.7267  -1.7010   0.2443   2.3356   2.3933   3.4735
     5.2990   5.5822   6.4848   7.8110   8.3189   9.5029  12.6725  14.4530
    19.4251  19.7160  20.8004

          k = 0.0767 0.3759-0.5217 (   801 PWs)   bands (ev):

    -8.6671  -6.0659  -4.5525  -1.9096   0.5469   2.0776   2.6725   3.3271
     4.6561   5.7519   6.7527   7.9117   8.4354  10.0543  12.4422  13.8576
    19.4682  20.1573  20.7137

          k = 0.0997-0.4987-0.4987 (   800 PWs)   bands (ev):

    -8.3910  -5.8971  -5.0741  -2.3191   0.9976   2.0580   2.5496   3.1983
     4.5678   5.3947   7.3023   8.2875   8.3814  10.0531  12.2147  14.1069
    19.4676  20.0660  21.3654

          k = 0.2072 0.2072 0.2072 (   790 PWs)   bands (ev):

    -9.7155  -4.2286  -3.4290  -3.4290   1.1761   1.1761   3.1154   3.9637
     3.9637   6.9631   7.0841   7.2512   7.2512   9.3299  14.6431  14.6431
    18.3398  18.7695  18.7695

          k = 0.2033 0.2033 0.3529 (   797 PWs)   bands (ev):

    -9.2605  -5.2814  -3.2968  -3.0251   0.4425   1.1023   2.5107   3.9772
     5.1447   6.8253   6.9499   7.3871   7.5575   9.2441  14.2520  14.2838
    18.7590  19.6145  19.9802

          k = 0.2263 0.2263-0.5217 (   804 PWs)   bands (ev):

    -8.8704  -6.1905  -2.9090  -2.7874   0.3263   0.7440   2.5091   4.1316
     5.5792   6.2320   6.4396   7.6358   7.7783  10.3366  13.0801  14.0075
    18.7258  20.1900  20.7639

          k = 0.1995 0.3491 0.3491 (   789 PWs)   bands (ev):

    -8.8448  -4.9503  -4.4286  -2.7033  -0.2505   1.0532   1.4363   4.6505
     6.0919   6.7435   6.9284   7.2064   7.8785   9.7572  13.9836  14.5759
    19.6235  19.7440  20.2120

          k = 0.2225 0.3721-0.5256 (   805 PWs)   bands (ev):

    -8.4828  -5.7398  -4.1843  -2.4459  -0.4678   0.6819   1.4155   4.9074
     6.1067   6.7541   6.9162   7.0224   8.1010  10.7119  13.4362  14.1923
    19.5303  20.1556  20.6080

          k = 0.2455-0.5026-0.5026 (   802 PWs)   bands (ev):

    -8.1992  -5.5693  -4.8014  -2.4122  -0.5035   0.5560   1.0870   5.0934
     6.1876   6.6181   6.7071   7.4397   8.4870  11.1523  13.0759  14.3107
    19.6063  20.0585  20.6845

          k = 0.3453 0.3453 0.3453 (   802 PWs)   bands (ev):

    -8.4783  -4.3754  -3.9911  -3.9911  -0.1016  -0.1016   0.1568   5.9179
     6.2881   6.2881   7.5074   7.5074   8.3490  10.3401  14.6304  14.6304
    19.8410  19.8410  19.9179

          k = 0.3683 0.3683-0.5294 (   796 PWs)   bands (ev):

    -8.1572  -5.2042  -3.7909  -3.4322  -0.6506  -0.4884   0.1678   5.6967
     6.4529   6.8670   7.3433   7.5800   8.5948  11.1672  14.2094  14.5467
    19.5948  20.1317  20.3883

          k = 0.3913-0.5064-0.5064 (   803 PWs)   bands (ev):

    -7.9208  -4.9426  -4.3593  -3.0925  -1.1885  -0.5718  -0.2233   5.3553
     6.7279   7.3053   7.4660   7.8042   8.8667  11.5979  14.2482  14.5991
    19.7792  19.9491  20.0845

          k =-0.4834-0.4834-0.4834 (   794 PWs)   bands (ev):

    -7.7775  -4.0933  -4.0933  -4.0675  -1.4851  -0.7924  -0.7924   4.8859
     7.3977   7.3977   7.9299   7.9299   9.1696  11.7493  14.7431  14.7431
    19.7934  19.7934  19.9148

          k = 0.0729-0.0767 0.0729 (   801 PWs)   bands (ev):

   -10.4734  -4.1872  -2.3344  -1.4292  -0.3612   0.3093   3.7841   4.1723
     5.4641   5.6926   6.4213   7.0113   7.4333  12.5345  14.3881  14.9121
    15.8746  16.4842  16.8083

          k = 0.0691-0.0806 0.2187 (   803 PWs)   bands (ev):

   -10.1732  -4.9748  -2.8066  -0.9959  -0.3145   1.4592   3.1527   4.1522
     5.1147   5.6929   6.5815   6.7666   7.2598  12.0445  13.5031  14.4455
    16.3891  17.1964  18.1295

          k =-0.2225 0.0767 0.0767 (   803 PWs)   bands (ev):

   -10.1553  -5.1531  -2.2005  -1.8800   0.6153   1.0047   3.4331   3.8720
     4.9905   5.6494   6.3301   7.1199   7.3129  12.3406  13.2129  14.3469
    16.3715  17.4561  17.5229

          k = 0.0652-0.0844 0.3644 (   803 PWs)   bands (ev):

    -9.6639  -6.1436  -2.7317  -0.6659  -0.0264   2.2638   2.7166   3.8659
     4.3151   5.3285   6.5244   6.7571   8.2573  11.2652  12.5539  13.6158
    16.7378  18.7775  19.6785

          k =-0.3683 0.0806 0.0806 (   803 PWs)   bands (ev):

    -9.6392  -6.2609  -1.9903  -1.9048   0.8596   2.2867   2.9395   3.2211
     4.4913   5.1189   6.0371   7.2217   8.5023  11.4838  12.1245  13.7721
    16.7911  18.6270  19.4786

          k = 0.0882-0.0614-0.5102 (   800 PWs)   bands (ev):

    -9.3298  -6.7399  -2.6357  -0.5394   0.1718   2.1340   2.8851   3.9278
     4.0004   4.8297   6.5003   6.6871   9.5798  10.3895  12.0671  13.2151
    16.9172  19.0545  21.1890

          k = 0.2148-0.0844 0.2148 (   796 PWs)   bands (ev):

    -9.8950  -4.9517  -3.8083  -0.9607  -0.0197   2.3018   2.3497   4.4783
     4.8117   5.4582   6.1980   7.3006   7.6019  11.3589  12.6788  14.6944
    17.3310  17.3402  18.7772

          k =-0.2263 0.0729 0.2225 (   804 PWs)   bands (ev):

    -9.8442  -5.4410  -3.2574  -1.3715   0.7096   1.9792   2.6113   3.9946
     4.8084   5.1015   6.4408   7.3207   7.8805  11.9044  12.4897  13.9862
    17.0877  17.4749  18.4605

          k = 0.2110-0.0882 0.3606 (   789 PWs)   bands (ev):

    -9.4059  -5.8253  -3.8458  -0.9609   0.2778   1.8233   2.7767   3.9603
     4.8882   5.4977   6.0325   7.3654   8.4498  10.6554  12.0247  14.1156
    17.7197  18.9737  19.9789

          k =-0.2302 0.0691 0.3683 (   807 PWs)   bands (ev):

    -9.3412  -6.1164  -3.6463  -0.9398   0.6131   1.7643   2.5233   4.2122
     4.6619   5.0801   6.3335   7.0900   8.8692  11.0907  12.1291  13.2583
    17.7142  18.4950  20.0322

          k =-0.3721 0.2263 0.0767 (   808 PWs)   bands (ev):

    -9.3364  -6.1957  -3.3451  -1.4447   0.8945   2.0563   2.5434   3.7941
     4.6475   5.0309   6.2606   7.2869   8.9039  10.9327  12.1159  13.5476
    17.8362  18.6797  19.5435

          k = 0.2340-0.0652-0.5141 (   807 PWs)   bands (ev):

    -9.0535  -6.4900  -3.6606  -0.9169   0.5395   1.5498   2.6007   3.9675
     5.0287   5.2155   6.3529   6.8602   9.3355  10.4687  11.9377  13.1970
    17.9643  19.7239  20.7914

          k = 0.3568-0.0921 0.3568 (   804 PWs)   bands (ev):

    -8.9523  -5.6388  -4.7619  -1.6039   0.5394   2.0923   2.8000   3.3360
     5.0458   5.2852   6.5257   7.9311   8.7231  10.1464  11.6632  14.3234
    19.0787  19.2247  20.4902

          k =-0.3759 0.0729 0.3721 (   808 PWs)   bands (ev):

    -8.8658  -6.1529  -4.3263  -1.4828   0.6191   1.9198   2.6004   3.7025
     4.5569   5.6519   6.2795   7.7503   8.8651  10.5014  12.3866  13.2055
    18.5142  19.4598  20.6627

          k = 0.3798-0.0691-0.5179 (   802 PWs)   bands (ev):

    -8.6234  -6.1132  -4.6617  -1.8573   0.8124   1.8793   2.8107   3.2210
     4.8091   5.3425   6.9036   7.9186   8.7424  10.2002  12.0160  13.7641
    19.2545  20.0049  20.6166

          k = 0.2187-0.2302 0.2187 (   790 PWs)   bands (ev):

    -9.5563  -5.4566  -3.6162  -1.9616   0.9083   2.0403   2.7480   3.7554
     4.0534   5.5336   6.8806   7.8116   8.1358  10.9998  12.2858  14.3068
    17.4365  17.5722  18.9389

          k = 0.2148-0.2340 0.3644 (   799 PWs)   bands (ev):

    -9.0755  -5.8596  -4.0252  -1.6642   0.2094   1.5082   2.9086   3.3273
     5.0720   5.9163   6.8632   7.6835   8.3643  10.8911  11.9916  13.9086
    17.9523  18.5780  20.0179

          k =-0.3759 0.2225 0.2225 (   799 PWs)   bands (ev):

    -9.0620  -6.0854  -3.2344  -2.4632   0.8872   1.0630   2.6239   4.1246
     4.4526   5.7732   6.8611   7.8054   8.2893  10.8611  12.2396  14.0184
    18.1491  18.8410  19.4697

          k = 0.2378-0.2110-0.5102 (   802 PWs)   bands (ev):

    -8.7694  -6.2582  -4.0418  -1.3392  -0.1372   0.9498   3.0479   3.3223
     5.6992   6.1644   6.6411   7.3937   8.2937  11.4472  11.7545  13.3932
    18.2207  19.8304  20.8913

          k = 0.3606-0.2378 0.3606 (   806 PWs)   bands (ev):

    -8.6386  -5.6913  -4.5246  -2.0045  -0.4154   1.5385   1.6072   4.0544
     5.7747   6.7386   6.7828   7.6106   8.2025  11.3293  11.8577  14.2759
    18.7323  19.0084  20.2384

          k =-0.3798 0.2187 0.3683 (   808 PWs)   bands (ev):

    -8.6225  -5.9423  -4.1176  -2.1602  -0.1762   0.8581   1.8764   4.4229
     5.6536   6.3043   7.1496   7.5214   8.0499  11.2064  12.5652  13.8932
    18.7464  19.0404  20.3576

          k = 0.3836-0.2148-0.5141 (   800 PWs)   bands (ev):

    -8.3656  -5.8945  -4.5361  -2.0234  -0.5097   0.6609   1.7271   4.4354
     6.3173   6.3844   7.1210   7.3432   8.1192  11.4593  12.4172  13.9535
    19.0941  19.8492  20.5277

          k = 0.3644-0.3836 0.3644 (   803 PWs)   bands (ev):

    -8.2448  -5.6309  -4.1009  -2.7253  -0.6989   0.2100   0.5303   5.7192
     6.3646   6.3681   7.0371   7.6229   8.4979  11.5988  13.0697  14.3765
    19.1228  19.1281  20.3141

          k = 0.3874-0.3606-0.5102 (   810 PWs)   bands (ev):

    -8.0323  -5.4711  -4.3394  -2.6107  -1.0796  -0.2528   0.3375   5.8541
     6.0504   6.9729   7.4790   7.5329   8.5834  11.7491  13.5020  14.3411
    19.3190  19.8370  20.2611

     the Fermi energy is    12.5037 ev

!    total energy              =     -88.09204574 Ry
     Harris-Foulkes estimate   =     -88.09204574 Ry
     estimated scf accuracy    <          6.4E-11 Ry

     The total energy is the sum of the following terms:

     one-electron contribution =      16.01144223 Ry
     hartree contribution      =      11.79576850 Ry
     xc contribution           =     -26.01924802 Ry
     ewald contribution        =     -89.87872740 Ry
     smearing contrib. (-TS)   =      -0.00128104 Ry

     convergence has been achieved in  10 iterations

     Forces acting on atoms (cartesian axes, Ry/au):

     atom    1 type  1   force =     0.00011095    0.00013451    0.00011095
     atom    2 type  1   force =    -0.00007346   -0.00007346   -0.00012323
     atom    3 type  1   force =    -0.00012323   -0.00007346   -0.00007346
     atom    4 type  1   force =    -0.00007346   -0.00012323   -0.00007346
     atom    5 type  1   force =     0.00013451    0.00011095    0.00011095
     atom    6 type  1   force =     0.00011095    0.00011095    0.00013451
     atom    7 type  2   force =    -0.00008625   -0.00008625   -0.00008625

     Total force =     0.000478     Total SCF correction =     0.000007


     Computing stress (Cartesian axis) and pressure

          total   stress  (Ry/bohr**3)                   (kbar)     P=   -1.23
  -0.00000834   0.00002275   0.00002275         -1.23      3.35      3.35
   0.00002275  -0.00000834   0.00002275          3.35     -1.23      3.35
   0.00002275   0.00002275  -0.00000834          3.35      3.35     -1.23


     Writing output data file NV.save/

     init_run     :      2.15s CPU      2.15s WALL (       2 calls)
     electrons    :    144.71s CPU    145.42s WALL (      10 calls)
     update_pot   :      3.08s CPU      3.08s WALL (       8 calls)
     forces       :      4.10s CPU      4.11s WALL (      10 calls)
     stress       :      7.30s CPU      7.30s WALL (      10 calls)

     Called by init_run:
     wfcinit      :      1.30s CPU      1.30s WALL (       2 calls)
     potinit      :      0.13s CPU      0.13s WALL (       2 calls)
     hinit0       :      0.69s CPU      0.69s WALL (       2 calls)

     Called by electrons:
     c_bands      :    128.78s CPU    129.35s WALL (      83 calls)
     sum_band     :     14.54s CPU     14.68s WALL (      83 calls)
     v_of_rho     :      0.11s CPU      0.11s WALL (      88 calls)
     newd         :      1.25s CPU      1.26s WALL (      88 calls)
     mix_rho      :      0.09s CPU      0.09s WALL (      83 calls)

     Called by c_bands:
     init_us_2    :      2.20s CPU      2.21s WALL (    8272 calls)
     cegterg      :    124.02s CPU    124.57s WALL (    3652 calls)

     Called by sum_band:
     sum_band:bec :      0.07s CPU      0.07s WALL (    3652 calls)
     addusdens    :      1.05s CPU      1.05s WALL (      83 calls)

     Called by *egterg:
     h_psi        :     68.91s CPU     69.23s WALL (   14384 calls)
     s_psi        :     13.37s CPU     13.44s WALL (   14384 calls)
     g_psi        :      0.63s CPU      0.64s WALL (   10644 calls)
     cdiaghg      :     10.09s CPU     10.12s WALL (   13724 calls)

     Called by h_psi:
     h_psi:pot    :     68.61s CPU     68.93s WALL (   14384 calls)
     h_psi:calbec :     13.36s CPU     13.43s WALL (   14384 calls)
     vloc_psi     :     41.82s CPU     42.01s WALL (   14384 calls)
     add_vuspsi   :     13.38s CPU     13.46s WALL (   14384 calls)

     General routines
     calbec       :     20.70s CPU     20.83s WALL (   20236 calls)
     fft          :      0.18s CPU      0.18s WALL (     571 calls)
     ffts         :      0.03s CPU      0.03s WALL (     171 calls)
     fftw         :     41.42s CPU     41.66s WALL (  465730 calls)
     interpolate  :      0.05s CPU      0.05s WALL (      88 calls)

     Parallel routines

     PWSCF        :   2m41.68s CPU   2m42.42s WALL


   This run was terminated on:   5:47:26  14Dec2022            

=------------------------------------------------------------------------------=
   JOB DONE.
=------------------------------------------------------------------------------=
