
     Program PWSCF v.6.4.1 starts on 14Dec2022 at 11:32: 0 

     This program is part of the open-source Quantum ESPRESSO suite
     for quantum simulation of materials; please cite
         "P. Giannozzi et al., J. Phys.:Condens. Matter 21 395502 (2009);
         "P. Giannozzi et al., J. Phys.:Condens. Matter 29 465901 (2017);
          URL http://www.quantum-espresso.org", 
     in publications or presentations arising from this work. More details at
     http://www.quantum-espresso.org/quote

     Parallel version (MPI), running on     1 processors

     MPI processes distributed on     1 nodes
     Waiting for input...
     Reading input from standard input

     Current dimensions of program PWSCF are:
     Max number of different atomic species (ntypx) = 10
     Max number of k-points (npk) =  40000
     Max angular momentum in pseudopotentials (lmaxx) =  3

     Subspace diagonalization in iterative solution of the eigenvalue problem:
     a serial algorithm will be used


     G-vector sticks info
     --------------------
     sticks:   dense  smooth     PW     G-vecs:    dense   smooth      PW
     Sum         241     187     73                 2421     1687     411



     bravais-lattice index     =            2
     lattice parameter (alat)  =       6.7407  a.u.
     unit-cell volume          =      76.5678 (a.u.)^3
     number of atoms/cell      =            2
     number of atomic types    =            1
     number of electrons       =         8.00
     number of Kohn-Sham states=            8
     kinetic-energy cutoff     =      30.0000  Ry
     charge density cutoff     =     150.0000  Ry
     convergence threshold     =      1.0E-08
     mixing beta               =       0.7000
     number of iterations used =            8  plain     mixing
     Exchange-correlation      =  SLA  PZ   NOGX NOGC ( 1  1  0  0 0 0)

     celldm(1)=   6.740653  celldm(2)=   0.000000  celldm(3)=   0.000000
     celldm(4)=   0.000000  celldm(5)=   0.000000  celldm(6)=   0.000000

     crystal axes: (cart. coord. in units of alat)
               a(1) = (  -0.500000   0.000000   0.500000 )  
               a(2) = (   0.000000   0.500000   0.500000 )  
               a(3) = (  -0.500000   0.500000   0.000000 )  

     reciprocal axes: (cart. coord. in units 2 pi/alat)
               b(1) = ( -1.000000 -1.000000  1.000000 )  
               b(2) = (  1.000000  1.000000  1.000000 )  
               b(3) = ( -1.000000  1.000000 -1.000000 )  


     PseudoPot. # 1 for C  read from file:
     ./C.pz-van_ak.UPF
     MD5 check sum: d40b4001ce20bbb1180eafeb54b8064c
     Pseudo is Ultrasoft, Zval =  4.0
     Generated by new atomic code, or converted to UPF format
     Using radial grid of  721 points,  4 beta functions with: 
                l(1) =   0
                l(2) =   0
                l(3) =   1
                l(4) =   1
     Q(r) pseudized with  8 coefficients,  rinner =    0.800   0.800   0.800


     atomic species   valence    mass     pseudopotential
        C              4.00    12.01070     C ( 1.00)

     48 Sym. Ops., with inversion, found (24 have fractional translation)



   Cartesian axes

     site n.     atom                  positions (alat units)
         1           C   tau(   1) = (   0.0000000   0.0000000   0.0000000  )
         2           C   tau(   2) = (   0.2500000   0.2500000   0.2500000  )

     number of k points=    60  Methfessel-Paxton smearing, width (Ry)=  0.0100
                       cart. coord. in units 2pi/alat
        k(    1) = (  -0.0625000   0.0625000   0.0625000), wk =   0.0078125
        k(    2) = (  -0.1875000   0.1875000  -0.0625000), wk =   0.0234375
        k(    3) = (  -0.3125000   0.3125000  -0.1875000), wk =   0.0234375
        k(    4) = (  -0.4375000   0.4375000  -0.3125000), wk =   0.0234375
        k(    5) = (   0.4375000  -0.4375000   0.5625000), wk =   0.0234375
        k(    6) = (   0.3125000  -0.3125000   0.4375000), wk =   0.0234375
        k(    7) = (   0.1875000  -0.1875000   0.3125000), wk =   0.0234375
        k(    8) = (   0.0625000  -0.0625000   0.1875000), wk =   0.0234375
        k(    9) = (  -0.0625000   0.3125000   0.0625000), wk =   0.0234375
        k(   10) = (  -0.1875000   0.4375000  -0.0625000), wk =   0.0468750
        k(   11) = (  -0.3125000   0.5625000  -0.1875000), wk =   0.0468750
        k(   12) = (   0.5625000  -0.3125000   0.6875000), wk =   0.0468750
        k(   13) = (   0.4375000  -0.1875000   0.5625000), wk =   0.0468750
        k(   14) = (   0.3125000  -0.0625000   0.4375000), wk =   0.0468750
        k(   15) = (   0.1875000   0.0625000   0.3125000), wk =   0.0468750
        k(   16) = (  -0.0625000   0.5625000   0.0625000), wk =   0.0234375
        k(   17) = (  -0.1875000   0.6875000  -0.0625000), wk =   0.0468750
        k(   18) = (   0.6875000  -0.1875000   0.8125000), wk =   0.0468750
        k(   19) = (   0.5625000  -0.0625000   0.6875000), wk =   0.0468750
        k(   20) = (   0.4375000   0.0625000   0.5625000), wk =   0.0468750
        k(   21) = (   0.3125000   0.1875000   0.4375000), wk =   0.0468750
        k(   22) = (  -0.0625000   0.8125000   0.0625000), wk =   0.0234375
        k(   23) = (   0.8125000  -0.0625000   0.9375000), wk =   0.0468750
        k(   24) = (   0.6875000   0.0625000   0.8125000), wk =   0.0468750
        k(   25) = (   0.5625000   0.1875000   0.6875000), wk =   0.0468750
        k(   26) = (   0.4375000   0.3125000   0.5625000), wk =   0.0468750
        k(   27) = (  -0.0625000  -0.9375000   0.0625000), wk =   0.0234375
        k(   28) = (  -0.1875000  -0.8125000  -0.0625000), wk =   0.0468750
        k(   29) = (  -0.3125000  -0.6875000  -0.1875000), wk =   0.0468750
        k(   30) = (  -0.0625000  -0.6875000   0.0625000), wk =   0.0234375
        k(   31) = (  -0.1875000  -0.5625000  -0.0625000), wk =   0.0468750
        k(   32) = (  -0.0625000  -0.4375000   0.0625000), wk =   0.0234375
        k(   33) = (  -0.1875000   0.1875000   0.1875000), wk =   0.0078125
        k(   34) = (  -0.3125000   0.3125000   0.0625000), wk =   0.0234375
        k(   35) = (  -0.4375000   0.4375000  -0.0625000), wk =   0.0234375
        k(   36) = (   0.4375000  -0.4375000   0.8125000), wk =   0.0234375
        k(   37) = (   0.3125000  -0.3125000   0.6875000), wk =   0.0234375
        k(   38) = (   0.1875000  -0.1875000   0.5625000), wk =   0.0234375
        k(   39) = (  -0.1875000   0.4375000   0.1875000), wk =   0.0234375
        k(   40) = (  -0.3125000   0.5625000   0.0625000), wk =   0.0468750
        k(   41) = (   0.5625000  -0.3125000   0.9375000), wk =   0.0468750
        k(   42) = (   0.4375000  -0.1875000   0.8125000), wk =   0.0468750
        k(   43) = (   0.3125000  -0.0625000   0.6875000), wk =   0.0468750
        k(   44) = (  -0.1875000   0.6875000   0.1875000), wk =   0.0234375
        k(   45) = (   0.6875000  -0.1875000   1.0625000), wk =   0.0468750
        k(   46) = (   0.5625000  -0.0625000   0.9375000), wk =   0.0468750
        k(   47) = (   0.4375000   0.0625000   0.8125000), wk =   0.0468750
        k(   48) = (  -0.1875000  -1.0625000   0.1875000), wk =   0.0234375
        k(   49) = (  -0.3125000  -0.9375000   0.0625000), wk =   0.0468750
        k(   50) = (  -0.1875000  -0.8125000   0.1875000), wk =   0.0234375
        k(   51) = (  -0.3125000   0.3125000   0.3125000), wk =   0.0078125
        k(   52) = (  -0.4375000   0.4375000   0.1875000), wk =   0.0234375
        k(   53) = (   0.4375000  -0.4375000   1.0625000), wk =   0.0234375
        k(   54) = (   0.3125000  -0.3125000   0.9375000), wk =   0.0234375
        k(   55) = (  -0.3125000   0.5625000   0.3125000), wk =   0.0234375
        k(   56) = (   0.5625000  -0.3125000   1.1875000), wk =   0.0468750
        k(   57) = (   0.4375000  -0.1875000   1.0625000), wk =   0.0468750
        k(   58) = (  -0.3125000  -1.1875000   0.3125000), wk =   0.0234375
        k(   59) = (  -0.4375000   0.4375000   0.4375000), wk =   0.0078125
        k(   60) = (   0.4375000  -0.4375000   1.3125000), wk =   0.0234375

     Dense  grid:     2421 G-vectors     FFT dimensions: (  20,  20,  20)

     Smooth grid:     1687 G-vectors     FFT dimensions: (  20,  20,  20)

     Estimated max dynamical RAM per process >       5.33 MB

     Initial potential from superposition of free atoms

     starting charge    7.99993, renormalised to    8.00000
     Starting wfcs are    8 randomized atomic wfcs

     total cpu time spent up to now is        0.2 secs

     Self-consistent Calculation

     iteration #  1     ecut=    30.00 Ry     beta= 0.70
     Davidson diagonalization with overlap
     ethr =  1.00E-02,  avg # of iterations =  2.8

     total cpu time spent up to now is        0.4 secs

     total energy              =     -22.84258042 Ry
     Harris-Foulkes estimate   =     -22.90913790 Ry
     estimated scf accuracy    <       0.12514548 Ry

     iteration #  2     ecut=    30.00 Ry     beta= 0.70
     Davidson diagonalization with overlap
     ethr =  1.56E-03,  avg # of iterations =  1.1

     total cpu time spent up to now is        0.5 secs

     total energy              =     -22.85369348 Ry
     Harris-Foulkes estimate   =     -22.85415741 Ry
     estimated scf accuracy    <       0.00178626 Ry

     iteration #  3     ecut=    30.00 Ry     beta= 0.70
     Davidson diagonalization with overlap
     ethr =  2.23E-05,  avg # of iterations =  2.8

     total cpu time spent up to now is        0.7 secs

     total energy              =     -22.85400833 Ry
     Harris-Foulkes estimate   =     -22.85401739 Ry
     estimated scf accuracy    <       0.00005213 Ry

     iteration #  4     ecut=    30.00 Ry     beta= 0.70
     Davidson diagonalization with overlap
     ethr =  6.52E-07,  avg # of iterations =  1.3

     total cpu time spent up to now is        0.8 secs

     total energy              =     -22.85401087 Ry
     Harris-Foulkes estimate   =     -22.85401100 Ry
     estimated scf accuracy    <       0.00000041 Ry

     iteration #  5     ecut=    30.00 Ry     beta= 0.70
     Davidson diagonalization with overlap
     ethr =  5.15E-09,  avg # of iterations =  2.1

     total cpu time spent up to now is        1.0 secs

     End of self-consistent calculation

          k =-0.0625 0.0625 0.0625 (   193 PWs)   bands (ev):

    -8.1232  12.3905  12.9281  12.9281  18.9157  18.9157  19.1128  26.7003

          k =-0.1875 0.1875-0.0625 (   210 PWs)   bands (ev):

    -7.5490  10.0475  11.3415  12.6015  19.4355  20.2636  20.5960  26.9711

          k =-0.3125 0.3125-0.1875 (   209 PWs)   bands (ev):

    -6.1298   5.9145  10.3303  11.5235  20.7344  21.5366  21.6963  27.5571

          k =-0.4375 0.4375-0.3125 (   214 PWs)   bands (ev):

    -3.9487   1.9498   9.8485  10.5920  21.5023  21.6159  22.2944  28.3246

          k = 0.4375-0.4375 0.5625 (   219 PWs)   bands (ev):

    -2.4350  -0.0305   9.9531  10.1189  21.2988  21.8737  22.4366  28.5264

          k = 0.3125-0.3125 0.4375 (   211 PWs)   bands (ev):

    -4.7466   3.2039  10.2129  10.5933  20.9017  22.0428  22.2282  27.9248

          k = 0.1875-0.1875 0.3125 (   207 PWs)   bands (ev):

    -6.6941   7.3118  10.8895  11.6213  19.9593  21.4994  21.5430  27.1602

          k = 0.0625-0.0625 0.1875 (   207 PWs)   bands (ev):

    -7.8357  11.2764  12.0033  12.5842  18.7189  20.0656  20.1247  26.7739

          k =-0.0625 0.3125 0.0625 (   209 PWs)   bands (ev):

    -7.2627   9.9693  10.7719  11.5488  18.3729  21.7317  21.7408  26.1896

          k =-0.1875 0.4375-0.0625 (   212 PWs)   bands (ev):

    -6.1277   7.4527   9.0331  10.7144  19.0251  22.9687  23.5384  25.2081

          k =-0.3125 0.5625-0.1875 (   212 PWs)   bands (ev):

    -4.1963   3.6078   8.4083   9.5965  20.2019  23.1105  24.5119  26.0253

          k = 0.5625-0.3125 0.6875 (   215 PWs)   bands (ev):

    -1.9255   0.4863   8.0107   9.1899  20.8010  22.7181  24.7340  28.0486

          k = 0.4375-0.1875 0.5625 (   211 PWs)   bands (ev):

    -3.4110   2.4165   7.7218   9.8647  21.3798  22.0994  24.4898  27.6015

          k = 0.3125-0.0625 0.4375 (   208 PWs)   bands (ev):

    -5.5687   6.1935   8.0387  11.0327  20.6285  22.1243  23.5442  26.2744

          k = 0.1875 0.0625 0.3125 (   209 PWs)   bands (ev):

    -6.9779   8.7212  10.1988  11.9621  19.3560  21.6039  21.6856  26.6372

          k =-0.0625 0.5625 0.0625 (   215 PWs)   bands (ev):

    -5.2835   7.2964   8.5440   8.5974  17.6801  22.5018  25.4372  25.4381

          k =-0.1875 0.6875-0.0625 (   211 PWs)   bands (ev):

    -3.6339   5.0540   6.9449   7.8254  18.5183  21.7408  26.1138  27.2242

          k = 0.6875-0.1875 0.8125 (   213 PWs)   bands (ev):

    -1.3751   2.1756   5.4580   7.7229  19.4249  24.1165  25.8407  27.6474

          k = 0.5625-0.0625 0.6875 (   215 PWs)   bands (ev):

    -1.4340   2.3367   4.5485   8.5078  20.2545  24.6128  27.0593  27.5467

          k = 0.4375 0.0625 0.5625 (   212 PWs)   bands (ev):

    -3.6605   4.0088   6.0679   9.7943  21.4020  22.4557  25.5596  26.6957

          k = 0.3125 0.1875 0.4375 (   213 PWs)   bands (ev):

    -5.2926   4.6606   9.3947  10.8485  20.6170  22.1540  22.8728  27.0694

          k =-0.0625 0.8125 0.0625 (   213 PWs)   bands (ev):

    -2.2770   3.5893   6.7970   7.1883  17.5265  19.4138  28.6227  28.6776

          k = 0.8125-0.0625 0.9375 (   212 PWs)   bands (ev):

    -0.2426   1.6598   5.6458   6.7262  18.5334  19.8604  28.7230  29.2219

          k = 0.6875 0.0625 0.8125 (   218 PWs)   bands (ev):

     0.0507   1.6827   4.0451   7.4292  19.2347  23.8288  26.9097  28.2829

          k = 0.5625 0.1875 0.6875 (   212 PWs)   bands (ev):

    -1.4316   0.9899   6.3170   8.7273  20.4506  23.7212  26.1192  27.8223

          k = 0.4375 0.3125 0.5625 (   215 PWs)   bands (ev):

    -2.9475   0.9811   9.1630   9.9718  21.2116  22.0024  23.2861  28.2669

          k =-0.0625-0.9375 0.0625 (   219 PWs)   bands (ev):

    -0.4501   1.5319   6.4812   6.9095  17.7623  18.5148  29.4885  29.5721

          k =-0.1875-0.8125-0.0625 (   212 PWs)   bands (ev):

    -2.0309   3.5093   6.0748   7.0570  18.4666  20.5519  27.5909  28.6091

          k =-0.3125-0.6875-0.1875 (   215 PWs)   bands (ev):

    -2.8689   2.7822   7.1426   8.3872  19.7697  24.1791  25.0972  26.2857

          k =-0.0625-0.6875 0.0625 (   214 PWs)   bands (ev):

    -3.8991   5.5886   7.4644   7.7384  17.5058  20.7524  27.1770  27.2018

          k =-0.1875-0.5625-0.0625 (   214 PWs)   bands (ev):

    -5.0080   6.2726   7.9619   9.1799  18.7179  23.3270  24.5537  25.4509

          k =-0.0625-0.4375 0.0625 (   209 PWs)   bands (ev):

    -6.4090   8.6611   9.5748  10.1113  17.9943  23.5669  23.5852  24.5061

          k =-0.1875 0.1875 0.1875 (   205 PWs)   bands (ev):

    -7.2631   8.6908  11.9067  11.9067  20.2405  20.2405  20.7334  27.2787

          k =-0.3125 0.3125 0.0625 (   210 PWs)   bands (ev):

    -6.4111   7.4149   9.1396  11.8696  20.4859  21.6585  22.0109  26.9361

          k =-0.4375 0.4375-0.0625 (   212 PWs)   bands (ev):

    -4.7408   5.0216   6.9989  10.7550  21.4905  22.0460  24.0377  26.9454

          k = 0.4375-0.4375 0.8125 (   212 PWs)   bands (ev):

    -2.4305   1.4825   6.9960   9.5985  20.6141  23.4063  24.7945  28.3054

          k = 0.3125-0.3125 0.6875 (   213 PWs)   bands (ev):

    -2.4178   1.4445   7.7172   8.9198  19.8861  24.2616  24.8754  26.6382

          k = 0.1875-0.1875 0.5625 (   216 PWs)   bands (ev):

    -4.7351   4.9530   8.9039   8.9400  19.1440  24.3816  24.4998  24.5724

          k =-0.1875 0.4375 0.1875 (   212 PWs)   bands (ev):

    -5.8479   6.0487   9.8392  10.5357  19.5613  22.9165  22.9591  25.9813

          k =-0.3125 0.5625 0.0625 (   213 PWs)   bands (ev):

    -4.4626   5.1130   7.0401   9.6311  20.4347  22.9016  24.9569  25.5556

          k = 0.5625-0.3125 0.9375 (   211 PWs)   bands (ev):

    -2.3600   3.1839   5.3145   8.3221  21.8089  22.5842  25.7577  27.4334

          k = 0.4375-0.1875 0.8125 (   213 PWs)   bands (ev):

    -0.9250   1.4058   5.6407   7.5359  21.0534  23.5744  26.3480  27.4580

          k = 0.3125-0.0625 0.6875 (   213 PWs)   bands (ev):

    -3.1130   4.1566   6.1746   8.0240  20.2584  23.0790  24.7183  27.2972

          k =-0.1875 0.6875 0.1875 (   216 PWs)   bands (ev):

    -3.3741   4.0094   7.1308   8.1588  18.7721  23.0340  26.0257  26.2677

          k = 0.6875-0.1875 1.0625 (   212 PWs)   bands (ev):

    -1.5572   3.1602   5.3842   6.7324  20.1697  22.3273  25.8706  28.4217

          k = 0.5625-0.0625 0.9375 (   211 PWs)   bands (ev):

     0.4939   1.8420   4.3834   5.6420  22.1939  23.7502  25.4754  26.7007

          k = 0.4375 0.0625 0.8125 (   212 PWs)   bands (ev):

    -0.9096   2.5159   4.7575   6.7347  22.1310  23.1378  25.2467  27.7639

          k =-0.1875-1.0625 0.1875 (   211 PWs)   bands (ev):

    -0.0882   1.6971   4.5899   7.3825  18.3449  21.6684  28.2179  28.9211

          k =-0.3125-0.9375 0.0625 (   211 PWs)   bands (ev):

     0.1255   1.8178   4.8203   6.1554  20.1579  21.8384  27.1847  28.3200

          k =-0.1875-0.8125 0.1875 (   213 PWs)   bands (ev):

    -1.7989   3.0494   5.4901   7.6444  18.4940  22.1205  27.3691  27.8283

          k =-0.3125 0.3125 0.3125 (   205 PWs)   bands (ev):

    -5.5716   4.4702  10.9258  10.9258  21.2521  21.2521  21.6763  28.0845

          k =-0.4375 0.4375 0.1875 (   215 PWs)   bands (ev):

    -4.4727   3.4271   8.5762  10.7077  21.5654  21.7716  23.1230  27.7397

          k = 0.4375-0.4375 1.0625 (   217 PWs)   bands (ev):

    -2.6298   3.0609   5.2038   9.4675  20.4180  24.0204  26.1848  27.6453

          k = 0.3125-0.3125 0.9375 (   218 PWs)   bands (ev):

    -0.4983   1.7735   4.0421   8.2748  19.2400  25.9636  26.2028  27.8943

          k =-0.3125 0.5625 0.3125 (   213 PWs)   bands (ev):

    -3.6766   2.1749   9.4160   9.5126  20.4077  23.0754  23.3906  27.2783

          k = 0.5625-0.3125 1.1875 (   214 PWs)   bands (ev):

    -2.1649   1.6925   6.8336   8.5915  21.2477  22.5892  25.9988  27.2535

          k = 0.4375-0.1875 1.0625 (   211 PWs)   bands (ev):

    -0.2462   1.9046   4.2091   7.0839  20.9272  24.6741  26.2336  26.9850

          k =-0.3125-1.1875 0.3125 (   215 PWs)   bands (ev):

    -1.1658   1.1757   5.8099   8.4953  19.4679  25.4194  26.1585  26.4966

          k =-0.4375 0.4375 0.4375 (   213 PWs)   bands (ev):

    -3.2118   0.7298  10.3906  10.3906  21.5014  21.5014  22.0492  28.4996

          k = 0.4375-0.4375 1.3125 (   215 PWs)   bands (ev):

    -2.1815   0.2348   8.6986   9.8331  20.9515  22.5733  23.4468  28.5157

     the Fermi energy is    15.5044 ev

!    total energy              =     -22.85401098 Ry
     Harris-Foulkes estimate   =     -22.85401098 Ry
     estimated scf accuracy    <          1.1E-09 Ry

     The total energy is the sum of the following terms:

     one-electron contribution =       7.85882787 Ry
     hartree contribution      =       1.91922715 Ry
     xc contribution           =      -7.05924149 Ry
     ewald contribution        =     -25.57282451 Ry
     smearing contrib. (-TS)   =       0.00000000 Ry

     convergence has been achieved in   5 iterations

     Forces acting on atoms (cartesian axes, Ry/au):

     atom    1 type  1   force =     0.00000000    0.00000000    0.00000000
     atom    2 type  1   force =    -0.00000000   -0.00000000   -0.00000000

     Total force =     0.000000     Total SCF correction =     0.000000


     Computing stress (Cartesian axis) and pressure

          total   stress  (Ry/bohr**3)                   (kbar)     P= -117.58
  -0.00079931  -0.00000000   0.00000000       -117.58     -0.00      0.00
  -0.00000000  -0.00079931  -0.00000000         -0.00   -117.58     -0.00
   0.00000000  -0.00000000  -0.00079931          0.00     -0.00   -117.58


     Writing output data file diamond.save/

     init_run     :      0.13s CPU      0.13s WALL (       1 calls)
     electrons    :      0.77s CPU      0.81s WALL (       1 calls)
     forces       :      0.02s CPU      0.02s WALL (       1 calls)
     stress       :      0.06s CPU      0.06s WALL (       1 calls)

     Called by init_run:
     wfcinit      :      0.05s CPU      0.05s WALL (       1 calls)
     potinit      :      0.00s CPU      0.00s WALL (       1 calls)
     hinit0       :      0.07s CPU      0.07s WALL (       1 calls)

     Called by electrons:
     c_bands      :      0.66s CPU      0.70s WALL (       5 calls)
     sum_band     :      0.10s CPU      0.10s WALL (       5 calls)
     v_of_rho     :      0.00s CPU      0.00s WALL (       6 calls)
     newd         :      0.01s CPU      0.01s WALL (       6 calls)
     mix_rho      :      0.00s CPU      0.00s WALL (       5 calls)

     Called by c_bands:
     init_us_2    :      0.03s CPU      0.03s WALL (     780 calls)
     cegterg      :      0.62s CPU      0.66s WALL (     300 calls)

     Called by sum_band:
     sum_band:bec :      0.00s CPU      0.00s WALL (     300 calls)
     addusdens    :      0.01s CPU      0.01s WALL (       5 calls)

     Called by *egterg:
     h_psi        :      0.43s CPU      0.45s WALL (     968 calls)
     s_psi        :      0.03s CPU      0.03s WALL (     968 calls)
     g_psi        :      0.00s CPU      0.00s WALL (     608 calls)
     cdiaghg      :      0.08s CPU      0.08s WALL (     908 calls)

     Called by h_psi:
     h_psi:pot    :      0.42s CPU      0.45s WALL (     968 calls)
     h_psi:calbec :      0.03s CPU      0.04s WALL (     968 calls)
     vloc_psi     :      0.35s CPU      0.37s WALL (     968 calls)
     add_vuspsi   :      0.03s CPU      0.04s WALL (     968 calls)

     General routines
     calbec       :      0.06s CPU      0.06s WALL (    1568 calls)
     fft          :      0.01s CPU      0.01s WALL (      39 calls)
     ffts         :      0.00s CPU      0.00s WALL (      11 calls)
     fftw         :      0.28s CPU      0.30s WALL (   15570 calls)
     interpolate  :      0.00s CPU      0.00s WALL (       6 calls)

     Parallel routines

     PWSCF        :      1.01s CPU      1.07s WALL


   This run was terminated on:  11:32: 1  14Dec2022            

=------------------------------------------------------------------------------=
   JOB DONE.
=------------------------------------------------------------------------------=
