<UPF version="2.0.1">
<PP_INFO>
Generated by new atomic code, or converted to UPF format
Author:
Generation date:
Pseudopotential type: US
Element: N
Functional:  SLA  PZ   NOGX NOGC
Suggested minimum cutoff for wavefunctions:   0. Ry
Suggested minimum cutoff for charge density:   0. Ry
The Pseudo was generated with a Non-Relativistic Calculation
L component and cutoff radius for Local Potential:  0   0.0000
Valence configuration:
nl pn  l   occ       Rcut    Rcut US       E pseu
2S  0  0  2.00     10.000      1.100     0.000000
2P  0  1  3.00     10.000      1.100     0.000000
Generation configuration: not available.
</PP_INFO>
<!--
END OF HUMAN READABLE SECTION
-->
<PP_HEADER generated="Generated by new atomic code, or converted to UPF format" author="" date="" comment="" element="N " pseudo_type="US" relativistic="no" is_ultrasoft="true" is_paw="false" is_coulomb="false" has_so="false" has_wfc="false" has_gipaw="false" paw_as_gipaw="false" core_correction="false" functional=" SLA  PZ   NOGX NOGC" z_valence="5.000000000000e0" total_psenergy="-1.925068724347e1" wfc_cutoff="0.000000000000e0" rho_cutoff="0.000000000000e0" l_max="1" l_max_rho="0" l_local="0" mesh_size="729" number_of_wfc="2" number_of_proj="4"/>
<PP_MESH mesh="729" rmax="8.088824608400e1" zmesh="7.000000000000e0">
<PP_R>
0.000000000000000e0 6.052972725709999e-6 1.220941257260000e-5 1.847108816660000e-5
2.483979836600000e-5 3.131737277800000e-5 3.790567228440000e-5 4.460658957610001e-5
5.142204969710001e-5 5.835401059700001e-5 6.540446369430000e-5 7.257543444750000e-5
7.986898293780000e-5 8.728720446060001e-5 9.483223012730001e-5 1.025062274780000e-4
1.103114011030000e-4 1.182499932790000e-4 1.263242846080000e-4 1.345365946790000e-4
1.428892827300000e-4 1.513847483260000e-4 1.600254320500000e-4 1.688138162030000e-4
1.777524255170000e-4 1.868438278840000e-4 1.960906350850000e-4 2.054955035510000e-4
2.150611351180000e-4 2.247902778060000e-4 2.346857266100000e-4 2.447503243020000e-4
2.549869622450001e-4 2.653985812269999e-4 2.759881723050000e-4 2.867587776630000e-4
2.977134914880000e-4 3.088554608580000e-4 3.201878866440000e-4 3.317140244340000e-4
3.434371854620000e-4 3.553607375680000e-4 3.674881061560000e-4 3.798227751850000e-4
3.923682881670000e-4 4.051282491839999e-4 4.181063239269999e-4 4.313062407460000e-4
4.447317917199999e-4 4.583868337519999e-4 4.722752896699999e-4 4.864011493580001e-4
5.007684709040000e-4 5.153813817610001e-4 5.302440799340000e-4 5.453608351910000e-4
5.607359902810001e-4 5.763739621900000e-4 5.922792434040001e-4 6.084564032030000e-4
6.249100889710000e-4 6.416450275350000e-4 6.586660265180000e-4 6.759779757240000e-4
6.935858485399999e-4 7.114947033690000e-4 7.297096850770000e-4 7.482360264760000e-4
7.670790498260001e-4 7.862441683630000e-4 8.057368878540000e-4 8.255628081799999e-4
8.457276249450000e-4 8.662371311100001e-4 8.870972186600001e-4 9.083138802939999e-4
9.298932111480001e-4 9.518414105469999e-4 9.741647837830001e-4 9.968697439300000e-4
1.019962813680000e-3 1.043450627230000e-3 1.067339932180000e-3 1.091637591450000e-3
1.116350585300000e-3 1.141486013290000e-3 1.167051096340000e-3 1.193053178800000e-3
1.219499730580000e-3 1.246398349250000e-3 1.273756762260000e-3 1.301582829170000e-3
1.329884543850000e-3 1.358670036850000e-3 1.387947577680000e-3 1.417725577200000e-3
1.448012590070000e-3 1.478817317160000e-3 1.510148608070000e-3 1.542015463660000e-3
1.574427038680000e-3 1.607392644340000e-3 1.640921751020000e-3 1.675023990990000e-3
1.709709161160000e-3 1.744987225900000e-3 1.780868319920000e-3 1.817362751170000e-3
1.854481003790000e-3 1.892233741140000e-3 1.930631808850000e-3 1.969686237930000e-3
2.009408247970000e-3 2.049809250340000e-3 2.090900851460000e-3 2.132694856150000e-3
2.175203271020000e-3 2.218438307920000e-3 2.262412387440000e-3 2.307138142470000e-3
2.352628421870000e-3 2.398896294110000e-3 2.445955051050000e-3 2.493818211770000e-3
2.542499526420000e-3 2.592012980200000e-3 2.642372797370000e-3 2.693593445340000e-3
2.745689638800000e-3 2.798676343970000e-3 2.852568782930000e-3 2.907382437920000e-3
2.963133055840000e-3 3.019836652760000e-3 3.077509518540000e-3 3.136168221469999e-3
3.195829613070000e-3 3.256510832880000e-3 3.318229313470000e-3 3.381002785340001e-3
3.444849282110001e-3 3.509787145630000e-3 3.575835031310000e-3 3.643011913410000e-3
3.711337090560000e-3 3.780830191250000e-3 3.851511179520000e-3 3.923400360640001e-3
3.996518386980000e-3 4.070886263940000e-3 4.146525355960000e-3 4.223457392700000e-3
4.301704475240000e-3 4.381289082450000e-3 4.462234077450001e-3 4.544562714180000e-3
4.628298644050000e-3 4.713465922779999e-3 4.800089017280000e-3 4.888192812690000e-3
4.977802619520000e-3 5.068944180930000e-3 5.161643680150000e-3 5.255927747920000e-3
5.351823470259999e-3 5.449358396130000e-3 5.548560545440000e-3 5.649458417040000e-3
5.752080996940000e-3 5.856457766629999e-3 5.962618711530000e-3 6.070594329610000e-3
6.180415640200000e-3 6.292114192820000e-3 6.405722076320000e-3 6.521271928020001e-3
6.638796943180001e-3 6.758330884459999e-3 6.879908091630000e-3 7.003563491490000e-3
7.129332607840000e-3 7.257251571700001e-3 7.387357131730000e-3 7.519686664720000e-3
7.654278186410001e-3 7.791170362310000e-3 7.930402518920000e-3 8.072014654929999e-3
8.216047452769999e-3 8.362542290270001e-3 8.511541252570002e-3 8.663087144190001e-3
8.817223501319999e-3 8.973994604369999e-3 9.133445490620000e-3 9.295621967250000e-3
9.460570624409998e-3 9.628338848660000e-3 9.798974836560001e-3 9.972527608540000e-3
1.014904702290000e-2 1.032858379040000e-2 1.051118948830000e-2 1.069691657580000e-2
1.088581840860000e-2 1.107794925460000e-2 1.127336430930000e-2 1.147211971160000e-2
1.167427256020000e-2 1.187988092960000e-2 1.208900388700000e-2 1.230170150960000e-2
1.251803490130000e-2 1.273806621030000e-2 1.296185864750000e-2 1.318947650400000e-2
1.342098517020000e-2 1.365645115390000e-2 1.389594209990000e-2 1.413952680950000e-2
1.438727525970000e-2 1.463925862390000e-2 1.489554929210000e-2 1.515622089150000e-2
1.542134830820000e-2 1.569100770800000e-2 1.596527655890000e-2 1.624423365300000e-2
1.652795912940000e-2 1.681653449680000e-2 1.711004265730000e-2 1.740856793030000e-2
1.771219607610000e-2 1.802101432140000e-2 1.833511138360000e-2 1.865457749670000e-2
1.897950443710000e-2 1.930998555020000e-2 1.964611577660000e-2 1.998799168010000e-2
2.033571147510000e-2 2.068937505470000e-2 2.104908401960000e-2 2.141494170730000e-2
2.178705322150000e-2 2.216552546270000e-2 2.255046715880000e-2 2.294198889580000e-2
2.334020315060000e-2 2.374522432220000e-2 2.415716876560000e-2 2.457615482430000e-2
2.500230286490000e-2 2.543573531160000e-2 2.587657668100000e-2 2.632495361840000e-2
2.678099493380000e-2 2.724483163900000e-2 2.771659698530000e-2 2.819642650180000e-2
2.868445803430000e-2 2.918083178470000e-2 2.968569035160000e-2 3.019917877110000e-2
3.072144455860000e-2 3.125263775080000e-2 3.179291094920000e-2 3.234241936400000e-2
3.290132085830000e-2 3.346977599350000e-2 3.404794807600000e-2 3.463600320330000e-2
3.523411031230000e-2 3.584244122759999e-2 3.646117071090000e-2 3.709047651130000e-2
3.773053941600000e-2 3.838154330280000e-2 3.904367519239999e-2 3.971712530270000e-2
4.040208710270000e-2 4.109875736879999e-2 4.180733624070000e-2 4.252802727960000e-2
4.326103752600000e-2 4.400657755950000e-2 4.476486155950000e-2 4.553610736610000e-2
4.632053654340000e-2 4.711837444280000e-2 4.792985026760000e-2 4.875519713910000e-2
4.959465216350000e-2 5.044845650000001e-2 5.131685543000000e-2 5.220009842780000e-2
5.309843923199999e-2 5.401213591850000e-2 5.494145097470000e-2 5.588665137480000e-2
5.684800865660000e-2 5.782579899950000e-2 5.882030330359999e-2 5.983180727090000e-2
6.086060148680001e-2 6.190698150410000e-2 6.297124792740000e-2 6.405370649990000e-2
6.515466819109999e-2 6.627444928579999e-2 6.741337147549999e-2 6.857176195059999e-2
6.974995349420000e-2 7.094828457790001e-2 7.216709945910001e-2 7.340674827970000e-2
7.466758716679999e-2 7.594997833510000e-2 7.725429019060000e-2 7.858089743700001e-2
7.993018118290001e-2 8.130252905130000e-2 8.269833529120001e-2 8.411800089080000e-2
8.556193369250000e-2 8.703054851030000e-2 8.852426724880001e-2 9.004351902450001e-2
9.158874028900000e-2 9.316037495450001e-2 9.475887452120000e-2 9.638469820710000e-2
9.803831307990000e-2 9.972019419110000e-2 1.014308247130000e-1 1.031706960760000e-1
1.049403081110000e-1 1.067401691950000e-1 1.085707963920000e-1 1.104327156060000e-1
1.123264617310000e-1 1.142525788030000e-1 1.162116201580000e-1 1.182041485900000e-1
1.202307365160000e-1 1.222919661340000e-1 1.243884295950000e-1 1.265207291740000e-1
1.286894774380000e-1 1.308952974260000e-1 1.331388228290000e-1 1.354206981680000e-1
1.377415789810000e-1 1.401021320120000e-1 1.425030354030000e-1 1.449449788870000e-1
1.474286639870000e-1 1.499548042170000e-1 1.525241252890000e-1 1.551373653190000e-1
1.577952750400000e-1 1.604986180180000e-1 1.632481708720000e-1 1.660447234940000e-1
1.688890792810000e-1 1.717820553600000e-1 1.747244828270000e-1 1.777172069860000e-1
1.807610875880000e-1 1.838569990800000e-1 1.870058308590000e-1 1.902084875220000e-1
1.934658891320000e-1 1.967789714760000e-1 2.001486863380000e-1 2.035760017740000e-1
2.070619023830000e-1 2.106073895990000e-1 2.142134819700000e-1 2.178812154580000e-1
2.216116437310000e-1 2.254058384690000e-1 2.292648896710000e-1 2.331899059670000e-1
2.371820149400000e-1 2.412423634430000e-1 2.453721179380000e-1 2.495724648220000e-1
2.538446107740000e-1 2.581897830990000e-1 2.626092300810000e-1 2.671042213410000e-1
2.716760482030000e-1 2.763260240650000e-1 2.810554847750000e-1 2.858657890150000e-1
2.907583186930000e-1 2.957344793370000e-1 3.007957005030000e-1 3.059434361820000e-1
3.111791652170000e-1 3.165043917330000e-1 3.219206455650000e-1 3.274294826970000e-1
3.330324857110000e-1 3.387312642420000e-1 3.445274554390000e-1 3.504227244360000e-1
3.564187648280000e-1 3.625172991630000e-1 3.687200794300000e-1 3.750288875700000e-1
3.814455359810000e-1 3.879718680400000e-1 3.946097586380000e-1 4.013611147120000e-1
4.082278757960000e-1 4.152120145770001e-1 4.223155374640000e-1 4.295404851600000e-1
4.368889332540000e-1 4.443629928130000e-1 4.519648109880000e-1 4.596965716370000e-1
4.675604959430000e-1 4.755588430600000e-1 4.836939107580000e-1 4.919680360860000e-1
5.003835960380000e-1 5.089430082430000e-1 5.176487316540000e-1 5.265032672570000e-1
5.355091587880000e-1 5.446689934659999e-1 5.539854027350000e-1 5.634610630180000e-1
5.730986964890000e-1 5.829010718539999e-1 5.928710051450000e-1 6.030113605320000e-1
6.133250511420000e-1 6.238150399000000e-1 6.344843403750000e-1 6.453360176510000e-1
6.563731892060000e-1 6.675990258050000e-1 6.790167524130000e-1 6.906296491240001e-1
7.024410520960000e-1 7.144543545179999e-1 7.266730075790000e-1 7.391005214620000e-1
7.517404663500001e-1 7.645964734560000e-1 7.776722360610000e-1 7.909715105789999e-1
8.044981176349999e-1 8.182559431600001e-1 8.322489395120000e-1 8.464811266080000e-1
8.609565930790000e-1 8.756794974480000e-1 8.906540693190001e-1 9.058846105979999e-1
9.213754967240000e-1 9.371311779290000e-1 9.531561805160001e-1 9.694551081569999e-1
9.860326432190000e-1 1.002893548110000e0 1.020042666630000e0 1.037484925410000e0
1.055225335250000e0 1.073268992640000e0 1.091621081180000e0 1.110286873050000e0
1.129271730590000e0 1.148581107770000e0 1.168220551800000e0 1.188195704720000e0
1.208512305010000e0 1.229176189220000e0 1.250193293690000e0 1.271569656230000e0
1.293311417860000e0 1.315424824550000e0 1.337916229080000e0 1.360792092770000e0
1.384058987430000e0 1.407723597180000e0 1.431792720410000e0 1.456273271710000e0
1.481172283870000e0 1.506496909890000e0 1.532254425050000e0 1.558452228980000e0
1.585097847810000e0 1.612198936310000e0 1.639763280090000e0 1.667798797860000e0
1.696313543680000e0 1.725315709290000e0 1.754813626430000e0 1.784815769310000e0
1.815330756950000e0 1.846367355710000e0 1.877934481810000e0 1.910041203880000e0
1.942696745550000e0 1.975910488140000e0 2.009691973300000e0 2.044050905800000e0
2.078997156300000e0 2.114540764190000e0 2.150691940440000e0 2.187461070600000e0
2.224858717720000e0 2.262895625430000e0 2.301582720990000e0 2.340931118460000e0
2.380952121870000e0 2.421657228480000e0 2.463058132070000e0 2.505166726340000e0
2.547995108250000e0 2.591555581580000e0 2.635860660410000e0 2.680923072730000e0
2.726755764100000e0 2.773371901360000e0 2.820784876430000e0 2.869008310140000e0
2.918056056150000e0 2.967942204930000e0 3.018681087790000e0 3.070287281050000e0
3.122775610160000e0 3.176161154000000e0 3.230459249200000e0 3.285685494570000e0
3.341855755520000e0 3.398986168700000e0 3.457093146550000e0 3.516193382100000e0
3.576303853690000e0 3.637441829910000e0 3.699624874500000e0 3.762870851450000e0
3.827197930120000e0 3.892624590420000e0 3.959169628160000e0 4.026852160460000e0
4.095691631180000e0 4.165707816590000e0 4.236920830970000e0 4.309351132440000e0
4.383019528840000e0 4.457947183650000e0 4.534155622160000e0 4.611666737560000e0
4.690502797310000e0 4.770686449470000e0 4.852240729260000e0 4.935189065650000e0
5.019555288080000e0 5.105363633350000e0 5.192638752520000e0 5.281405718050000e0
5.371690030970000e0 5.463517628220000e0 5.556914890080000e0 5.651908647800000e0
5.748526191220000e0 5.846795276710000e0 5.946744135080000e0 6.048401479680000e0
6.151796514720000e0 6.256958943580000e0 6.363918977390000e0 6.472707343710000e0
6.583355295330000e0 6.695894619260000e0 6.810357645860000e0 6.926777258170000e0
7.045186901260000e0 7.165620591950000e0 7.288112928510000e0 7.412699100600000e0
7.539414899440000e0 7.668296728010000e0 7.799381611570000e0 7.932707208270000e0
8.068311819970001e0 8.206234403260000e0 8.346514580619999e0 8.489192651840000e0
8.634309605569999e0 8.781907131090000e0 8.932027630320000e0 9.084714229970000e0
9.240010793960000e0 9.397961935970001e0 9.558613032309999e0 9.722010234940001e0
9.888200484710000e0 1.005723152490000e1 1.022915191470000e1 1.040401104380000e1
1.058185914550000e1 1.076274731240000e1 1.094672751010000e1 1.113385259240000e1
1.132417631690000e1 1.151775335980000e1 1.171463933220000e1 1.191489079540000e1
1.211856527800000e1 1.232572129150000e1 1.253641834800000e1 1.275071697670000e1
1.296867874130000e1 1.319036625810000e1 1.341584321360000e1 1.364517438290000e1
1.387842564860000e1 1.411566401910000e1 1.435695764850000e1 1.460237585570000e1
1.485198914460000e1 1.510586922440000e1 1.536408902980000e1 1.562672274240000e1
1.589384581180000e1 1.616553497730000e1 1.644186828980000e1 1.672292513470000e1
1.700878625410000e1 1.729953377040000e1 1.759525120980000e1 1.789602352600000e1
1.820193712520000e1 1.851307989050000e1 1.882954120710000e1 1.915141198820000e1
1.947878470110000e1 1.981175339370000e1 2.015041372140000e1 2.049486297480000e1
2.084520010740000e1 2.120152576430000e1 2.156394231110000e1 2.193255386300000e1
2.230746631490000e1 2.268878737190000e1 2.307662658020000e1 2.347109535850000e1
2.387230703010000e1 2.428037685520000e1 2.469542206450000e1 2.511756189240000e1
2.554691761150000e1 2.598361256740001e1 2.642777221410000e1 2.687952415020000e1
2.733899815500000e1 2.780632622680000e1 2.828164261970000e1 2.876508388310000e1
2.925678890010000e1 2.975689892810000e1 3.026555763910000e1 3.078291116090000e1
3.130910811910000e1 3.184429968000000e1 3.238863959370000e1 3.294228423850000e1
3.350539266580000e1 3.407812664580000e1 3.466065071390000e1 3.525313221790000e1
3.585574136640000e1 3.646865127730000e1 3.709203802770000e1 3.772608070460000e1
3.837096145620000e1 3.902686554420000e1 3.969398139730000e1 4.037250066480000e1
4.106261827220000e1 4.176453247700000e1 4.247844492550001e1 4.320456071100000e1
4.394308843240000e1 4.469424025460000e1 4.545823196880000e1 4.623528305520000e1
4.702561674540000e1 4.782946008710001e1 4.864704400880001e1 4.947860338660000e1
5.032437711150000e1 5.118460815780001e1 5.205954365330000e1 5.294943495000000e1
5.385453769650001e1 5.477511191120001e1 5.571142205750000e1 5.666373711890000e1
5.763233067720001e1 5.861748099070001e1 5.961947107380000e1 6.063858877910000e1
6.167512687920000e1 6.272938315150000e1 6.380166046350000e1 6.489226685960000e1
6.600151565000001e1 6.712972550040000e1 6.827722052370000e1 6.944433037290000e1
7.063139033610000e1 7.183874143280001e1 7.306673051140000e1 7.431571034950000e1
7.558603975490001e1 7.687808366860001e1 7.819221326980001e1 7.952880608250000e1
8.088824608400001e1
</PP_R>
<PP_RAB>
6.001821251010000e-6 6.104414009070000e-6 6.208760447149999e-6 6.314890541970000e-6
6.422834782629999e-6 6.532624179450000e-6 6.644290272780000e-6 6.757865142130002e-6
6.873381415370000e-6 6.990872278080000e-6 7.110371483110000e-6 7.231913360290000e-6
7.355532826230000e-6 7.481265394409999e-6 7.609147185370001e-6 7.739214937070001e-6
7.871506015469999e-6 8.006058425220001e-6 8.142910820640001e-6 8.282102516760002e-6
8.423673500669999e-6 8.567664442969999e-6 8.714116709479999e-6 8.863072373089999e-6
9.014574225880001e-6 9.168665791410000e-6 9.325391337200001e-6 9.484795887470002e-6
9.646925236050002e-6 9.811825959580002e-6 9.979545430840000e-6 1.015013183240000e-5
1.032363417040000e-5 1.050010228870000e-5 1.067958688330000e-5 1.086213951650000e-5
1.104781263220000e-5 1.123665957060000e-5 1.142873458400000e-5 1.162409285160000e-5
1.182279049610000e-5 1.202488459960000e-5 1.223043321980000e-5 1.243949540670000e-5
1.265213121990000e-5 1.286840174570000e-5 1.308836911420000e-5 1.331209651790000e-5
1.353964822930000e-5 1.377108961970000e-5 1.400648717760000e-5 1.424590852830000e-5
1.448942245280000e-5 1.473709890800000e-5 1.498900904650000e-5 1.524522523730000e-5
1.550582108630000e-5 1.577087145760000e-5 1.604045249510000e-5 1.631464164430000e-5
1.659351767420000e-5 1.687716070080000e-5 1.716565220890000e-5 1.745907507680000e-5
1.775751359910000e-5 1.806105351150000e-5 1.836978201500000e-5 1.868378780150000e-5
1.900316107860000e-5 1.932799359610000e-5 1.965837867230000e-5 1.999441122020000e-5
2.033618777550000e-5 2.068380652410000e-5 2.103736733000000e-5 2.139697176450000e-5
2.176272313490000e-5 2.213472651450000e-5 2.251308877270000e-5 2.289791860569999e-5
2.328932656770000e-5 2.368742510240000e-5 2.409232857610000e-5 2.450415330950000e-5
2.492301761200000e-5 2.534904181520000e-5 2.578234830750000e-5 2.622306156970000e-5
2.667130820990000e-5 2.712721700090000e-5 2.759091891650000e-5 2.806254716910001e-5
2.854223724850000e-5 2.903012696030000e-5 2.952635646580000e-5 3.003106832220000e-5
3.054440752340000e-5 3.106652154190001e-5 3.159756037079999e-5 3.213767656730000e-5
3.268702529650000e-5 3.324576437540000e-5 3.381405431920000e-5 3.439205838640000e-5
3.497994262650000e-5 3.557787592730000e-5 3.618603006330001e-5 3.680457974550000e-5
3.743370267130000e-5 3.807357957540000e-5 3.872439428230000e-5 3.938633375820000e-5
4.005958816570000e-5 4.074435091770000e-5 4.144081873329999e-5 4.214919169420001e-5
4.286967330220000e-5 4.360247053780000e-5 4.434779391950000e-5 4.510585756410001e-5
4.587687924879999e-5 4.666108047320000e-5 4.745868652310000e-5 4.826992653520001e-5
4.909503356309999e-5 4.993424464419999e-5 5.078780086750000e-5 5.165594744320000e-5
5.253893377300000e-5 5.343701352180000e-5 5.435044469050000e-5 5.527948969030000e-5
5.622441541770000e-5 5.718549333169999e-5 5.816299953140001e-5 5.915721483530000e-5
6.016842486230001e-5 6.119692011350000e-5 6.224299605550000e-5 6.330695320590001e-5
6.438909721899999e-5 6.548973897360000e-5 6.660919466299999e-5 6.774778588509999e-5
6.890583973500002e-5 7.008368889939999e-5 7.128167175140002e-5 7.250013244830001e-5
7.373942103030000e-5 7.499989352109999e-5 7.628191203000000e-5 7.758584485609998e-5
7.891206659399998e-5 8.026095824170000e-5 8.163290730960002e-5 8.302830793200000e-5
8.444756098070002e-5 8.589107417950000e-5 8.735926222180000e-5 8.885254688980000e-5
9.037135717500000e-5 9.191612940239999e-5 9.348730735520000e-5 9.508534240230000e-5
9.671069362820001e-5 9.836382796499999e-5 1.000452203260000e-4 1.017553537430000e-4
1.034947195040000e-4 1.052638172960000e-4 1.070631553450000e-4 1.088932505660000e-4
1.107546287120000e-4 1.126478245190000e-4 1.145733818670000e-4 1.165318539290000e-4
1.185238033390000e-4 1.205498023430000e-4 1.226104329740000e-4 1.247062872090000e-4
1.268379671470000e-4 1.290060851780000e-4 1.312112641620000e-4 1.334541376020000e-4
1.357353498340000e-4 1.380555562050000e-4 1.404154232670000e-4 1.428156289620000e-4
1.452568628230000e-4 1.477398261710000e-4 1.502652323120000e-4 1.528338067460000e-4
1.554462873750000e-4 1.581034247150000e-4 1.608059821090000e-4 1.635547359500000e-4
1.663504759020000e-4 1.691940051270000e-4 1.720861405150000e-4 1.750277129210000e-4
1.780195674020000e-4 1.810625634610000e-4 1.841575752900000e-4 1.873054920260000e-4
1.905072180070000e-4 1.937636730240000e-4 1.970757925950000e-4 2.004445282280000e-4
2.038708476950000e-4 2.073557353110000e-4 2.109001922180000e-4 2.145052366690000e-4
2.181719043230000e-4 2.219012485440000e-4 2.256943406990000e-4 2.295522704710000e-4
2.334761461690000e-4 2.374670950450000e-4 2.415262636230000e-4 2.456548180220000e-4
2.498539442970000e-4 2.541248487750000e-4 2.584687584050000e-4 2.628869211070000e-4
2.673806061350001e-4 2.719511044370000e-4 2.765997290290001e-4 2.813278153700000e-4
2.861367217490000e-4 2.910278296710000e-4 2.960025442570000e-4 3.010622946460000e-4
3.062085344060000e-4 3.114427419530000e-4 3.167664209730000e-4 3.221811008560000e-4
3.276883371350000e-4 3.332897119320000e-4 3.389868344140000e-4 3.447813412530000e-4
3.506748971000000e-4 3.566691950599999e-4 3.627659571770001e-4 3.689669349340000e-4
3.752739097509999e-4 3.816886935010000e-4 3.882131290260000e-4 3.948490906720000e-4
4.015984848200000e-4 4.084632504420000e-4 4.154453596510000e-4 4.225468182730000e-4
4.297696664189999e-4 4.371159790750000e-4 4.445878666920000e-4 4.521874757999999e-4
4.599169896200000e-4 4.677786286909999e-4 4.757746515100000e-4 4.839073551800000e-4
4.921790760690000e-4 5.005921904830001e-4 5.091491153460000e-4 5.178523088980000e-4
5.267042713960000e-4 5.357075458400001e-4 5.448647186960001e-4 5.541784206410001e-4
5.636513273229999e-4 5.732861601240000e-4 5.830856869460000e-4 5.930527230020001e-4
6.031901316290000e-4 6.135008251090000e-4 6.239877655040001e-4 6.346539655099999e-4
6.455024893180000e-4 6.565364535010000e-4 6.677590279029999e-4 6.791734365510001e-4
6.907829585850001e-4 7.025909291960000e-4 7.146007405850002e-4 7.268158429389999e-4
7.392397454200000e-4 7.518760171749999e-4 7.647282883600002e-4 7.778002511850000e-4
7.910956609699999e-4 8.046183372309999e-4 8.183721647690001e-4 8.323610947950000e-4
8.465891460559998e-4 8.610604059960000e-4 8.757790319289999e-4 8.907492522310001e-4
9.059753675560000e-4 9.214617520729998e-4 9.372128547199999e-4 9.532332004850000e-4
9.695273917020000e-4 9.861001093770000e-4 1.002956114530000e-3 1.020100249570000e-3
1.037537439670000e-3 1.055272694200000e-3 1.073311108160000e-3 1.091657863620000e-3
1.110318231270000e-3 1.129297571860000e-3 1.148601337790000e-3 1.168235074650000e-3
1.188204422850000e-3 1.208515119180000e-3 1.229172998520000e-3 1.250183995480000e-3
1.271554146110000e-3 1.293289589640000e-3 1.315396570240000e-3 1.337881438830000e-3
1.360750654860000e-3 1.384010788220000e-3 1.407668521100000e-3 1.431730649910000e-3
1.456204087230000e-3 1.481095863800000e-3 1.506413130550000e-3 1.532163160650000e-3
1.558353351570000e-3 1.584991227260000e-3 1.612084440250000e-3 1.639640773910000e-3
1.667668144640000e-3 1.696174604150000e-3 1.725168341800000e-3 1.754657686940000e-3
1.784651111270000e-3 1.815157231340000e-3 1.846184810950000e-3 1.877742763730000e-3
1.909840155670000e-3 1.942486207740000e-3 1.975690298500000e-3 2.009461966850000e-3
2.043810914740000e-3 2.078747009960000e-3 2.114280288970000e-3 2.150420959790000e-3
2.187179404940000e-3 2.224566184410000e-3 2.262592038700000e-3 2.301267891890000e-3
2.340604854830000e-3 2.380614228240000e-3 2.421307506050000e-3 2.462696378660000e-3
2.504792736280001e-3 2.547608672380000e-3 2.591156487160000e-3 2.635448691060000e-3
2.680498008360000e-3 2.726317380880000e-3 2.772919971620000e-3 2.820319168610000e-3
2.868528588719999e-3 2.917562081580000e-3 2.967433733580000e-3 3.018157871860000e-3
3.069749068500000e-3 3.122222144650000e-3 3.175592174789999e-3 3.229874491120000e-3
3.285084687890000e-3 3.341238625920000e-3 3.398352437150000e-3 3.456442529280000e-3
3.515525590460000e-3 3.575618594110000e-3 3.636738803800000e-3 3.698903778170000e-3
3.762131376010000e-3 3.826439761410000e-3 3.891847408900000e-3 3.958373108840000e-3
4.026035972770000e-3 4.094855438940001e-3 4.164851277830000e-3 4.236043597899999e-3
4.308452851330000e-3 4.382099839880000e-3 4.457005720930000e-3 4.533192013470001e-3
4.610680604360001e-3 4.689493754560000e-3 4.769654105569999e-3 4.851184685910001e-3
4.934108917740000e-3 5.018450623580000e-3 5.104234033170000e-3 5.191483790430000e-3
5.280224960520000e-3 5.370483037070001e-3 5.462283949470001e-3 5.555654070350000e-3
5.650620223130000e-3 5.747209689770001e-3 5.845450218530001e-3 5.945370032030000e-3
6.046997835280000e-3 6.150362824010001e-3 6.255494692950001e-3 6.362423644480000e-3
6.471180397189999e-3 6.581796194820000e-3 6.694302815120000e-3 6.808732579090000e-3
6.925118360170001e-3 7.043493593750000e-3 7.163892286730000e-3 7.286349027350001e-3
7.410898995049999e-3 7.537577970620001e-3 7.666422346480001e-3 7.797469137129999e-3
7.930755989770000e-3 8.066321195150000e-3 8.204203698510000e-3 8.344443110840000e-3
8.487079720199999e-3 8.632154503330000e-3 8.779709137420001e-3 8.929786012039999e-3
9.082428241390000e-3 9.237679676610000e-3 9.395584918450000e-3 9.556189330029998e-3
9.719539049880000e-3 9.885681005209999e-3 1.005466292540000e-2 1.022653335570000e-2
1.040134167110000e-2 1.057913809070000e-2 1.075997369200000e-2 1.094390042550000e-2
1.113097112980000e-2 1.132123954680000e-2 1.151476033670000e-2 1.171158909450000e-2
1.191178236530000e-2 1.211539766050000e-2 1.232249347510000e-2 1.253312930370000e-2
1.274736565770000e-2 1.296526408320000e-2 1.318688717820000e-2 1.341229861070000e-2
1.364156313710000e-2 1.387474662060000e-2 1.411191605030000e-2 1.435313956040000e-2
1.459848644970000e-2 1.484802720170000e-2 1.510183350460000e-2 1.535997827210000e-2
1.562253566400000e-2 1.588958110820000e-2 1.616119132150000e-2 1.643744433240000e-2
1.671841950290000e-2 1.700419755190000e-2 1.729486057770000e-2 1.759049208240000e-2
1.789117699500000e-2 1.819700169650000e-2 1.850805404460000e-2 1.882442339840000e-2
1.914620064470000e-2 1.947347822410000e-2 1.980635015690000e-2 2.014491207080000e-2
2.048926122810000e-2 2.083949655370000e-2 2.119571866340000e-2 2.155802989290000e-2
2.192653432730000e-2 2.230133783060000e-2 2.268254807680000e-2 2.307027458010000e-2
2.346462872690000e-2 2.386572380740000e-2 2.427367504860000e-2 2.468859964680000e-2
2.511061680210000e-2 2.553984775160000e-2 2.597641580510000e-2 2.642044638030000e-2
2.687206703840000e-2 2.733140752140000e-2 2.779859978890000e-2 2.827377805620000e-2
2.875707883280000e-2 2.924864096170000e-2 2.974860565910000e-2 3.025711655530000e-2
3.077431973560000e-2 3.130036378240000e-2 3.183539981800000e-2 3.237958154800000e-2
3.293306530520001e-2 3.349601009480000e-2 3.406857763980000e-2 3.465093242800000e-2
3.524324175859999e-2 3.584567579050000e-2 3.645840759140000e-2 3.708161318730000e-2
3.771547161320000e-2 3.836016496420000e-2 3.901587844830000e-2 3.968280043930000e-2
4.036112253090000e-2 4.105103959210000e-2 4.175274982249999e-2 4.246645481000000e-2
4.319235958820000e-2 4.393067269550000e-2 4.468160623500000e-2 4.544537593539999e-2
4.622220121280000e-2 4.701230523420000e-2 4.781591498120000e-2 4.863326131520001e-2
4.946457904420000e-2 5.031010698950000e-2 5.117008805499999e-2 5.204476929660000e-2
5.293440199340001e-2 5.383924171950000e-2 5.475954841789999e-2 5.569558647490000e-2
5.664762479620000e-2 5.761593688390000e-2 5.860080091540000e-2 5.960249982290000e-2
6.062132137540001e-2 6.165755826029999e-2 6.271150816870000e-2 6.378347387980000e-2
6.487376334870000e-2 6.598268979440000e-2 6.711057179009999e-2 6.825773335439999e-2
6.942450404470001e-2 7.061121905160000e-2 7.181821929529999e-2 7.304585152370001e-2
7.429446841170000e-2 7.556442866279999e-2 7.685609711210000e-2 7.816984483080001e-2
7.950604923330000e-2 8.086509418520000e-2 8.224737011389999e-2 8.365327412039999e-2
8.508321009390000e-2 8.653758882709999e-2 8.801682813510002e-2 8.952135297460000e-2
9.105159556649999e-2 9.260799551980000e-2 9.419099995830001e-2 9.580106364830000e-2
9.743864913010000e-2 9.910422685029999e-2 1.007982752970000e-1 1.025212811380000e-1
1.042737393590000e-1 1.060561534070000e-1 1.078690353360000e-1 1.097129059520000e-1
1.115882949620000e-1 1.134957411310000e-1 1.154357924290000e-1 1.174090061970000e-1
1.194159493000000e-1 1.214571982950000e-1 1.235333395930000e-1 1.256449696280000e-1
1.277926950320000e-1 1.299771328040000e-1 1.321989104920000e-1 1.344586663680000e-1
1.367570496170000e-1 1.390947205210000e-1 1.414723506450000e-1 1.438906230390000e-1
1.463502324240000e-1 1.488518853990000e-1 1.513963006400000e-1 1.539842091090000e-1
1.566163542610000e-1 1.592934922610000e-1 1.620163921990000e-1 1.647858363120000e-1
1.676026202060000e-1 1.704675530900000e-1 1.733814580030000e-1 1.763451720540000e-1
1.793595466610000e-1 1.824254477950000e-1 1.855437562290000e-1 1.887153677950000e-1
1.919411936330000e-1 1.952221604630000e-1 1.985592108410000e-1 2.019533034380000e-1
2.054054133120000e-1 2.089165321860000e-1 2.124876687370000e-1 2.161198488830000e-1
2.198141160800000e-1 2.235715316190000e-1 2.273931749330000e-1 2.312801439050000e-1
2.352335551870000e-1 2.392545445180000e-1 2.433442670500000e-1 2.475038976810000e-1
2.517346313920000e-1 2.560376835910000e-1 2.604142904620000e-1 2.648657093200000e-1
2.693932189710000e-1 2.739981200800000e-1 2.786817355470000e-1 2.834454108850000e-1
2.882905146030000e-1 2.932184386080000e-1 2.982305985970000e-1 3.033284344650000e-1
3.085134107230000e-1 3.137870169140000e-1 3.191507680430000e-1 3.246062050110000e-1
3.301548950610000e-1 3.357984322230000e-1 3.415384377770000e-1 3.473765607160000e-1