
     Program PWSCF v.6.4.1 starts on 30Nov2022 at 14:58:10 

     This program is part of the open-source Quantum ESPRESSO suite
     for quantum simulation of materials; please cite
         "P. Giannozzi et al., J. Phys.:Condens. Matter 21 395502 (2009);
         "P. Giannozzi et al., J. Phys.:Condens. Matter 29 465901 (2017);
          URL http://www.quantum-espresso.org", 
     in publications or presentations arising from this work. More details at
     http://www.quantum-espresso.org/quote

     Parallel version (MPI), running on     1 processors

     MPI processes distributed on     1 nodes
     Waiting for input...
     Reading input from standard input

     Current dimensions of program PWSCF are:
     Max number of different atomic species (ntypx) = 10
     Max number of k-points (npk) =  40000
     Max angular momentum in pseudopotentials (lmaxx) =  3

     Subspace diagonalization in iterative solution of the eigenvalue problem:
     a serial algorithm will be used


     G-vector sticks info
     --------------------
     sticks:   dense  smooth     PW     G-vecs:    dense   smooth      PW
     Sum         211     169     61                10409     7409    1501



     bravais-lattice index     =            4
     lattice parameter (alat)  =       4.6020  a.u.
     unit-cell volume          =     337.6218 (a.u.)^3
     number of atoms/cell      =            2
     number of atomic types    =            1
     number of electrons       =        10.00
     number of Kohn-Sham states=            9
     kinetic-energy cutoff     =      30.0000  Ry
     charge density cutoff     =     150.0000  Ry
     convergence threshold     =      1.0E-08
     mixing beta               =       0.7000
     number of iterations used =            8  plain     mixing
     Exchange-correlation      = SLA PZ NOGX NOGC ( 1  1  0  0 0 0)

     celldm(1)=   4.602000  celldm(2)=   0.000000  celldm(3)=   4.000000
     celldm(4)=   0.000000  celldm(5)=   0.000000  celldm(6)=   0.000000

     crystal axes: (cart. coord. in units of alat)
               a(1) = (   1.000000   0.000000   0.000000 )  
               a(2) = (  -0.500000   0.866025   0.000000 )  
               a(3) = (   0.000000   0.000000   4.000000 )  

     reciprocal axes: (cart. coord. in units 2 pi/alat)
               b(1) = (  1.000000  0.577350 -0.000000 )  
               b(2) = (  0.000000  1.154701  0.000000 )  
               b(3) = (  0.000000 -0.000000  0.250000 )  


     PseudoPot. # 1 for N  read from file:
     ./N.pz-van_ak.UPF
     MD5 check sum: 6092c7bba5830f51dd79c833739b857d
     Pseudo is Ultrasoft, Zval =  5.0
     Generated by new atomic code, or converted to UPF format
     Using radial grid of  729 points,  4 beta functions with: 
                l(1) =   0
                l(2) =   0
                l(3) =   1
                l(4) =   1
     Q(r) pseudized with  8 coefficients,  rinner =    0.800   0.800   0.800


     atomic species   valence    mass     pseudopotential
        N              5.00    14.00670     N ( 1.00)

     24 Sym. Ops., with inversion, found (12 have fractional translation)



   Cartesian axes

     site n.     atom                  positions (alat units)
         1           N   tau(   1) = (   0.0000000   0.5773503   0.0000000  )
         2           N   tau(   2) = (   0.0000000   0.0000000   0.0000000  )

     number of k points=    19  Methfessel-Paxton smearing, width (Ry)=  0.0100
                       cart. coord. in units 2pi/alat
        k(    1) = (   0.0000000   0.0000000   0.0000000), wk =   0.0138889
        k(    2) = (   0.0000000   0.0962250   0.0000000), wk =   0.0833333
        k(    3) = (   0.0000000   0.1924501   0.0000000), wk =   0.0833333
        k(    4) = (   0.0000000   0.2886751   0.0000000), wk =   0.0833333
        k(    5) = (   0.0000000   0.3849002   0.0000000), wk =   0.0833333
        k(    6) = (   0.0000000   0.4811252   0.0000000), wk =   0.0833333
        k(    7) = (   0.0000000  -0.5773503   0.0000000), wk =   0.0416667
        k(    8) = (   0.0833333   0.1443376   0.0000000), wk =   0.0833333
        k(    9) = (   0.0833333   0.2405626   0.0000000), wk =   0.1666667
        k(   10) = (   0.0833333   0.3367877   0.0000000), wk =   0.1666667
        k(   11) = (   0.0833333   0.4330127   0.0000000), wk =   0.1666667
        k(   12) = (   0.0833333   0.5292377   0.0000000), wk =   0.1666667
        k(   13) = (   0.1666667   0.2886751   0.0000000), wk =   0.0833333
        k(   14) = (   0.1666667   0.3849002   0.0000000), wk =   0.1666667
        k(   15) = (   0.1666667   0.4811252   0.0000000), wk =   0.1666667
        k(   16) = (   0.1666667   0.5773503   0.0000000), wk =   0.0833333
        k(   17) = (   0.2500000   0.4330127   0.0000000), wk =   0.0833333
        k(   18) = (   0.2500000   0.5292377   0.0000000), wk =   0.1666667
        k(   19) = (   0.3333333   0.5773503   0.0000000), wk =   0.0277778

     Dense  grid:    10409 G-vectors     FFT dimensions: (  18,  18,  72)

     Smooth grid:     7409 G-vectors     FFT dimensions: (  18,  18,  72)

     Estimated max dynamical RAM per process >      16.86 MB

     Initial potential from superposition of free atoms

     starting charge    9.99999, renormalised to   10.00000

     negative rho (up, down):  8.687E-04 0.000E+00
     Starting wfcs are    8 randomized atomic wfcs +    1 random wfcs

     total cpu time spent up to now is        0.7 secs

     Self-consistent Calculation

     iteration #  1     ecut=    30.00 Ry     beta= 0.70
     Davidson diagonalization with overlap
     ethr =  1.00E-02,  avg # of iterations =  5.2

     Threshold (ethr) on eigenvalues was too large:
     Diagonalizing with lowered threshold

     Davidson diagonalization with overlap
     ethr =  8.13E-04,  avg # of iterations =  1.1

     negative rho (up, down):  1.664E-03 0.000E+00

     total cpu time spent up to now is        2.3 secs

     total energy              =     -39.38177177 Ry
     Harris-Foulkes estimate   =     -39.42063847 Ry
     estimated scf accuracy    <       0.08147731 Ry

     iteration #  2     ecut=    30.00 Ry     beta= 0.70
     Davidson diagonalization with overlap
     ethr =  8.15E-04,  avg # of iterations =  3.2

     negative rho (up, down):  1.821E-03 0.000E+00

     total cpu time spent up to now is        3.1 secs

     total energy              =     -39.39121473 Ry
     Harris-Foulkes estimate   =     -39.39198593 Ry
     estimated scf accuracy    <       0.00188904 Ry

     iteration #  3     ecut=    30.00 Ry     beta= 0.70
     Davidson diagonalization with overlap
     ethr =  1.89E-05,  avg # of iterations =  5.4

     negative rho (up, down):  1.903E-03 0.000E+00

     total cpu time spent up to now is        4.3 secs

     total energy              =     -39.39159346 Ry
     Harris-Foulkes estimate   =     -39.39161011 Ry
     estimated scf accuracy    <       0.00008441 Ry

     iteration #  4     ecut=    30.00 Ry     beta= 0.70
     Davidson diagonalization with overlap
     ethr =  8.44E-07,  avg # of iterations =  3.0

     negative rho (up, down):  1.923E-03 0.000E+00

     total cpu time spent up to now is        5.1 secs

     total energy              =     -39.39159930 Ry
     Harris-Foulkes estimate   =     -39.39159923 Ry
     estimated scf accuracy    <       0.00000206 Ry

     iteration #  5     ecut=    30.00 Ry     beta= 0.70
     Davidson diagonalization with overlap
     ethr =  2.06E-08,  avg # of iterations =  1.5

     negative rho (up, down):  1.928E-03 0.000E+00

     total cpu time spent up to now is        5.7 secs

     End of self-consistent calculation

          k = 0.0000 0.0000 0.0000 (   915 PWs)   bands (ev):

   -26.2802 -10.4339  -8.7791  -8.7791   1.5919   2.6877   3.2578   3.2578
     4.3990

          k = 0.0000 0.0962 0.0000 (   905 PWs)   bands (ev):

   -26.1136 -10.2517  -9.5418  -9.0569   1.9572   2.9171   3.4666   3.8283
     4.6219

          k = 0.0000 0.1925 0.0000 (   919 PWs)   bands (ev):

   -25.6166 -11.3632  -9.7274  -9.7119   1.9436   3.6078   4.0174   4.8276
     5.3455

          k = 0.0000 0.2887 0.0000 (   929 PWs)   bands (ev):

   -24.7996 -13.5874 -10.4968  -8.8395   1.5006   2.5053   4.7552   6.3921
     6.9365

          k = 0.0000 0.3849 0.0000 (   933 PWs)   bands (ev):

   -23.6880 -15.8482 -11.1531  -7.6959   0.7476   1.0537   6.3518   7.9084
     8.8286

          k = 0.0000 0.4811 0.0000 (   929 PWs)   bands (ev):

   -22.3680 -17.9037 -11.5821  -6.4575  -0.9286   0.7480   8.3702   9.7767
    10.6420

          k = 0.0000-0.5774 0.0000 (   934 PWs)   bands (ev):

   -21.4490 -19.0746 -11.7302  -5.7677  -1.7769   0.6406  10.4331  10.7785
    12.0194

          k = 0.0833 0.1443 0.0000 (   924 PWs)   bands (ev):

   -25.7818 -10.7446  -9.8907  -9.6184   2.4076   3.3724   3.5730   4.3539
     5.2809

          k = 0.0833 0.2406 0.0000 (   933 PWs)   bands (ev):

   -25.1244 -12.6192 -10.4874  -9.1832   2.3889   3.0998   4.2952   4.7198
     5.9480

          k = 0.0833 0.3368 0.0000 (   943 PWs)   bands (ev):

   -24.1578 -14.7676 -11.3031  -8.1677   1.4888   1.9626   5.6688   6.7382
     7.2509

          k = 0.0833 0.4330 0.0000 (   943 PWs)   bands (ev):

   -22.9254 -16.8933 -11.9011  -6.9418  -0.2338   1.5902   7.4765   8.8259
     8.9280

          k = 0.0833 0.5292 0.0000 (   941 PWs)   bands (ev):

   -21.6332 -18.6591 -12.2130  -5.8346  -1.6220   1.3850   9.5659  10.3623
    10.7846

          k = 0.1667 0.2887 0.0000 (   936 PWs)   bands (ev):

   -24.3161 -14.1730 -11.6535  -8.3279   1.7751   3.4679   4.7305   5.4406
     7.0234

          k = 0.1667 0.3849 0.0000 (   950 PWs)   bands (ev):

   -23.2178 -15.9679 -12.6486  -7.2027   0.2240   3.4671   6.3864   7.0314
     8.4648

          k = 0.1667 0.4811 0.0000 (   947 PWs)   bands (ev):

   -21.9106 -17.7912 -13.2513  -5.9584  -1.3144   3.2324   8.2801   9.0935
    10.0747

          k = 0.1667 0.5774 0.0000 (   952 PWs)   bands (ev):

   -20.9763 -18.9150 -13.4501  -5.2211  -2.1576   3.1408   9.1463  10.9758
    11.2933

          k = 0.2500 0.4330 0.0000 (   940 PWs)   bands (ev):

   -22.0229 -17.2577 -13.8747  -6.0159  -1.1602   4.9742   6.5964   8.8189
     9.8008

          k = 0.2500 0.5292 0.0000 (   942 PWs)   bands (ev):

   -20.7316 -18.6108 -14.5358  -4.8231  -2.4476   5.2744   7.7888  10.5065
    10.9668

          k = 0.3333 0.5774 0.0000 (   936 PWs)   bands (ev):

   -19.5660 -19.5660 -15.0812  -3.6271  -3.6271   6.9327   6.9327  10.3906
    12.2009

     the Fermi energy is     1.6304 ev

!    total energy              =     -39.39159943 Ry
     Harris-Foulkes estimate   =     -39.39159942 Ry
     estimated scf accuracy    <          7.5E-09 Ry

     The total energy is the sum of the following terms:

     one-electron contribution =    -148.47751639 Ry
     hartree contribution      =      76.46916599 Ry
     xc contribution           =      -9.95125322 Ry
     ewald contribution        =      42.56795142 Ry
     smearing contrib. (-TS)   =       0.00005277 Ry

     convergence has been achieved in   5 iterations

     Forces acting on atoms (cartesian axes, Ry/au):

     atom    1 type  1   force =     0.00000000   -0.00000000    0.00000000
     atom    2 type  1   force =     0.00000000    0.00000000    0.00000000

     Total force =     0.000000     Total SCF correction =     0.000000


     Computing stress (Cartesian axis) and pressure

          total   stress  (Ry/bohr**3)                   (kbar)     P=   44.95
   0.00048228   0.00000000   0.00000000         70.95      0.00      0.00
   0.00000000   0.00048228  -0.00000000          0.00     70.95     -0.00
   0.00000000  -0.00000000  -0.00004794          0.00     -0.00     -7.05


     Writing output data file N.save/

     init_run     :      0.47s CPU      0.47s WALL (       1 calls)
     electrons    :      5.02s CPU      5.02s WALL (       1 calls)
     forces       :      0.07s CPU      0.07s WALL (       1 calls)
     stress       :      0.19s CPU      0.19s WALL (       1 calls)

     Called by init_run:
     wfcinit      :      0.26s CPU      0.26s WALL (       1 calls)
     potinit      :      0.02s CPU      0.02s WALL (       1 calls)
     hinit0       :      0.16s CPU      0.16s WALL (       1 calls)

     Called by electrons:
     c_bands      :      4.03s CPU      4.03s WALL (       6 calls)
     sum_band     :      0.88s CPU      0.88s WALL (       6 calls)
     v_of_rho     :      0.03s CPU      0.03s WALL (       6 calls)
     newd         :      0.08s CPU      0.08s WALL (       6 calls)
     mix_rho      :      0.01s CPU      0.01s WALL (       6 calls)

     Called by c_bands:
     init_us_2    :      0.09s CPU      0.09s WALL (     285 calls)
     cegterg      :      3.91s CPU      3.91s WALL (     114 calls)

     Called by sum_band:
     sum_band:bec :      0.00s CPU      0.00s WALL (     114 calls)
     addusdens    :      0.06s CPU      0.06s WALL (       6 calls)

     Called by *egterg:
     h_psi        :      3.34s CPU      3.34s WALL (     499 calls)
     s_psi        :      0.14s CPU      0.14s WALL (     499 calls)
     g_psi        :      0.02s CPU      0.02s WALL (     366 calls)
     cdiaghg      :      0.14s CPU      0.14s WALL (     461 calls)

     Called by h_psi:
     h_psi:pot    :      3.33s CPU      3.33s WALL (     499 calls)
     h_psi:calbec :      0.14s CPU      0.14s WALL (     499 calls)
     vloc_psi     :      3.05s CPU      3.05s WALL (     499 calls)
     add_vuspsi   :      0.14s CPU      0.14s WALL (     499 calls)

     General routines
     calbec       :      0.22s CPU      0.22s WALL (     708 calls)
     fft          :      0.06s CPU      0.06s WALL (      40 calls)
     ffts         :      0.01s CPU      0.01s WALL (      12 calls)
     fftw         :      3.30s CPU      3.30s WALL (    6730 calls)
     interpolate  :      0.01s CPU      0.01s WALL (       6 calls)

     Parallel routines

     PWSCF        :      5.99s CPU      5.99s WALL


   This run was terminated on:  14:58:16  30Nov2022            

=------------------------------------------------------------------------------=
   JOB DONE.
=------------------------------------------------------------------------------=
