
     Program PWSCF v.6.4.1 starts on 16Nov2022 at 14:38: 1 

     This program is part of the open-source Quantum ESPRESSO suite
     for quantum simulation of materials; please cite
         "P. Giannozzi et al., J. Phys.:Condens. Matter 21 395502 (2009);
         "P. Giannozzi et al., J. Phys.:Condens. Matter 29 465901 (2017);
          URL http://www.quantum-espresso.org", 
     in publications or presentations arising from this work. More details at
     http://www.quantum-espresso.org/quote

     Parallel version (MPI), running on     1 processors

     MPI processes distributed on     1 nodes
     Waiting for input...
     Reading input from standard input

     Current dimensions of program PWSCF are:
     Max number of different atomic species (ntypx) = 10
     Max number of k-points (npk) =  40000
     Max angular momentum in pseudopotentials (lmaxx) =  3

     Atomic positions and unit cell read from directory:
     ./work/graphene.save/


     Subspace diagonalization in iterative solution of the eigenvalue problem:
     a serial algorithm will be used


     G-vector sticks info
     --------------------
     sticks:   dense  smooth     PW     G-vecs:    dense   smooth      PW
     Sum         211     169     61                10409     7409    1501



     bravais-lattice index     =            4
     lattice parameter (alat)  =       4.6020  a.u.
     unit-cell volume          =     337.6218 (a.u.)^3
     number of atoms/cell      =            2
     number of atomic types    =            1
     number of electrons       =         8.00
     number of Kohn-Sham states=           16
     kinetic-energy cutoff     =      30.0000  Ry
     charge density cutoff     =     150.0000  Ry
     Exchange-correlation      =  SLA  PZ   NOGX NOGC ( 1  1  0  0 0 0)

     celldm(1)=   4.602000  celldm(2)=   0.000000  celldm(3)=   4.000000
     celldm(4)=   0.000000  celldm(5)=   0.000000  celldm(6)=   0.000000

     crystal axes: (cart. coord. in units of alat)
               a(1) = (   1.000000   0.000000   0.000000 )  
               a(2) = (  -0.500000   0.866025   0.000000 )  
               a(3) = (   0.000000   0.000000   4.000000 )  

     reciprocal axes: (cart. coord. in units 2 pi/alat)
               b(1) = (  1.000000  0.577350 -0.000000 )  
               b(2) = (  0.000000  1.154701  0.000000 )  
               b(3) = (  0.000000 -0.000000  0.250000 )  


     PseudoPot. # 1 for C  read from file:
     ./C.pz-van_ak.UPF
     MD5 check sum: d40b4001ce20bbb1180eafeb54b8064c
     Pseudo is Ultrasoft, Zval =  4.0
     Generated by new atomic code, or converted to UPF format
     Using radial grid of  721 points,  4 beta functions with: 
                l(1) =   0
                l(2) =   0
                l(3) =   1
                l(4) =   1
     Q(r) pseudized with  8 coefficients,  rinner =    0.800   0.800   0.800


     atomic species   valence    mass     pseudopotential
        C              4.00    12.01070     C ( 1.00)

      4 Sym. Ops. (no inversion) found



   Cartesian axes

     site n.     atom                  positions (alat units)
         1           C   tau(   1) = (   0.0000000   0.0000000   0.0000000  )
         2           C   tau(   2) = (   0.0000000   0.6000000   0.0000000  )

     number of k points=    61  Methfessel-Paxton smearing, width (Ry)=  0.0100
                       cart. coord. in units 2pi/alat
        k(    1) = (   0.0000000   0.0000000   0.0000000), wk =   0.0327869
        k(    2) = (   0.0333333   0.0000000   0.0000000), wk =   0.0327869
        k(    3) = (   0.0666667   0.0000000   0.0000000), wk =   0.0327869
        k(    4) = (   0.1000000   0.0000000   0.0000000), wk =   0.0327869
        k(    5) = (   0.1333333   0.0000000   0.0000000), wk =   0.0327869
        k(    6) = (   0.1666667   0.0000000   0.0000000), wk =   0.0327869
        k(    7) = (   0.2000000   0.0000000   0.0000000), wk =   0.0327869
        k(    8) = (   0.2333333   0.0000000   0.0000000), wk =   0.0327869
        k(    9) = (   0.2666667   0.0000000   0.0000000), wk =   0.0327869
        k(   10) = (   0.3000000   0.0000000   0.0000000), wk =   0.0327869
        k(   11) = (   0.3333333   0.0000000   0.0000000), wk =   0.0327869
        k(   12) = (   0.3666667   0.0000000   0.0000000), wk =   0.0327869
        k(   13) = (   0.4000000   0.0000000   0.0000000), wk =   0.0327869
        k(   14) = (   0.4333333   0.0000000   0.0000000), wk =   0.0327869
        k(   15) = (   0.4666667   0.0000000   0.0000000), wk =   0.0327869
        k(   16) = (   0.5000000   0.0000000   0.0000000), wk =   0.0327869
        k(   17) = (   0.5333333   0.0000000   0.0000000), wk =   0.0327869
        k(   18) = (   0.5666667   0.0000000   0.0000000), wk =   0.0327869
        k(   19) = (   0.6000000   0.0000000   0.0000000), wk =   0.0327869
        k(   20) = (   0.6333333   0.0000000   0.0000000), wk =   0.0327869
        k(   21) = (   0.6666667   0.0000000   0.0000000), wk =   0.0327869
        k(   22) = (   0.6583333   0.0144338   0.0000000), wk =   0.0327869
        k(   23) = (   0.6500000   0.0288675   0.0000000), wk =   0.0327869
        k(   24) = (   0.6416667   0.0433013   0.0000000), wk =   0.0327869
        k(   25) = (   0.6333333   0.0577350   0.0000000), wk =   0.0327869
        k(   26) = (   0.6250000   0.0721688   0.0000000), wk =   0.0327869
        k(   27) = (   0.6166667   0.0866025   0.0000000), wk =   0.0327869
        k(   28) = (   0.6083333   0.1010363   0.0000000), wk =   0.0327869
        k(   29) = (   0.6000000   0.1154700   0.0000000), wk =   0.0327869
        k(   30) = (   0.5916667   0.1299038   0.0000000), wk =   0.0327869
        k(   31) = (   0.5833333   0.1443375   0.0000000), wk =   0.0327869
        k(   32) = (   0.5750000   0.1587713   0.0000000), wk =   0.0327869
        k(   33) = (   0.5666667   0.1732050   0.0000000), wk =   0.0327869
        k(   34) = (   0.5583333   0.1876388   0.0000000), wk =   0.0327869
        k(   35) = (   0.5500000   0.2020725   0.0000000), wk =   0.0327869
        k(   36) = (   0.5416667   0.2165063   0.0000000), wk =   0.0327869
        k(   37) = (   0.5333333   0.2309400   0.0000000), wk =   0.0327869
        k(   38) = (   0.5250000   0.2453738   0.0000000), wk =   0.0327869
        k(   39) = (   0.5166667   0.2598075   0.0000000), wk =   0.0327869
        k(   40) = (   0.5083333   0.2742413   0.0000000), wk =   0.0327869
        k(   41) = (   0.5000000   0.2886750   0.0000000), wk =   0.0327869
        k(   42) = (   0.4750000   0.2742412   0.0000000), wk =   0.0327869
        k(   43) = (   0.4500000   0.2598075   0.0000000), wk =   0.0327869
        k(   44) = (   0.4250000   0.2453738   0.0000000), wk =   0.0327869
        k(   45) = (   0.4000000   0.2309400   0.0000000), wk =   0.0327869
        k(   46) = (   0.3750000   0.2165063   0.0000000), wk =   0.0327869
        k(   47) = (   0.3500000   0.2020725   0.0000000), wk =   0.0327869
        k(   48) = (   0.3250000   0.1876388   0.0000000), wk =   0.0327869
        k(   49) = (   0.3000000   0.1732050   0.0000000), wk =   0.0327869
        k(   50) = (   0.2750000   0.1587713   0.0000000), wk =   0.0327869
        k(   51) = (   0.2500000   0.1443375   0.0000000), wk =   0.0327869
        k(   52) = (   0.2250000   0.1299037   0.0000000), wk =   0.0327869
        k(   53) = (   0.2000000   0.1154700   0.0000000), wk =   0.0327869
        k(   54) = (   0.1750000   0.1010362   0.0000000), wk =   0.0327869
        k(   55) = (   0.1500000   0.0866025   0.0000000), wk =   0.0327869
        k(   56) = (   0.1250000   0.0721688   0.0000000), wk =   0.0327869
        k(   57) = (   0.1000000   0.0577350   0.0000000), wk =   0.0327869
        k(   58) = (   0.0750000   0.0433012   0.0000000), wk =   0.0327869
        k(   59) = (   0.0500000   0.0288675   0.0000000), wk =   0.0327869
        k(   60) = (   0.0250000   0.0144337   0.0000000), wk =   0.0327869
        k(   61) = (   0.0000000   0.0000000   0.0000000), wk =   0.0327869

     Dense  grid:    10409 G-vectors     FFT dimensions: (  18,  18,  72)

     Smooth grid:     7409 G-vectors     FFT dimensions: (  18,  18,  72)

     Estimated max dynamical RAM per process >      24.79 MB

     The potential is recalculated from file :
     ./work/graphene.save/charge-density


     negative rho (up, down):  1.646E-04 0.000E+00
     Starting wfcs are    8 randomized atomic wfcs +    8 random wfcs

     Band Structure Calculation
     Davidson diagonalization with overlap

     ethr =  1.25E-10,  avg # of iterations = 21.0

     total cpu time spent up to now is       27.6 secs

     End of band structure calculation

          k = 0.0000 0.0000 0.0000 (   915 PWs)   bands (ev):

   -20.1130  -8.3789  -4.3542  -2.6243   2.6284   4.4288   5.4494   6.9210
     9.1572  10.5219  11.3713  12.5476  13.1417  19.9671  22.1312  23.1361

          k = 0.0333 0.0000 0.0000 (   904 PWs)   bands (ev):

   -20.0932  -8.3541  -4.4269  -2.6748   2.6559   4.4560   5.4767   6.9965
     9.1728  10.5478  11.2931  12.5751  13.1782  19.9853  22.2019  23.1612

          k = 0.0667 0.0000 0.0000 (   908 PWs)   bands (ev):

   -20.0339  -8.2800  -4.6389  -2.8247   2.7381   4.5378   5.5582   7.2123
     9.2186  10.6253  11.0629  12.6567  13.2895  20.0378  22.4054  23.2378

          k = 0.1000 0.0000 0.0000 (   908 PWs)   bands (ev):

   -19.9351  -8.1566  -4.9698  -3.0673   2.8752   4.6738   5.6942   7.5428
     9.2982  10.6927  10.7540  12.7920  13.4804  20.1172  22.7146  23.3757

          k = 0.1333 0.0000 0.0000 (   910 PWs)   bands (ev):

   -19.7971  -7.9842  -5.3942  -3.3934   3.0671   4.8642   5.8848   7.9516
     9.4142  10.2009  10.9333  12.9799  13.7583  20.2060  23.0680  23.6059

          k = 0.1667 0.0000 0.0000 (   924 PWs)   bands (ev):

   -19.6198  -7.7633  -5.8865  -3.7912   3.3138   5.1084   6.1299   8.4009
     9.5688   9.6084  11.1618  13.2192  14.1308  20.2612  23.3721  23.9318

          k = 0.2000 0.0000 0.0000 (   926 PWs)   bands (ev):

   -19.4037  -7.4945  -6.4238  -4.2478   3.6151   5.4062   6.4296   8.8579
     8.9386   9.7647  11.4376  13.5091  14.6026  20.1800  23.0425  23.6008

          k = 0.2333 0.0000 0.0000 (   936 PWs)   bands (ev):

   -19.1490  -7.1786  -6.9880  -4.7503   3.9709   5.7569   6.7837   8.2119
     9.2979  10.0020  11.7574  13.8485  15.1705  19.7970  22.5545  23.7421

          k = 0.2667 0.0000 0.0000 (   944 PWs)   bands (ev):

   -18.8560  -7.5650  -6.8167  -5.2865   4.3811   6.1597   7.1921   7.4481
     9.7069  10.2808  12.1154  14.2365  15.8206  19.0978  22.4887  23.6331

          k = 0.3000 0.0000 0.0000 (   942 PWs)   bands (ev):

   -18.5253  -8.1437  -6.4102  -5.8451   4.8453   6.6133   6.6631   7.6545
    10.0815  10.6003  12.5008  14.6719  16.5256  18.2638  22.6652  23.0342

          k = 0.3333 0.0000 0.0000 (   936 PWs)   bands (ev):

   -18.1574  -8.7163  -6.4160  -5.9604   5.3633   5.8707   7.1157   8.1706
    10.4241  10.9568  12.8912  15.1528  17.2374  17.4435  22.1486  22.6710

          k = 0.3667 0.0000 0.0000 (   934 PWs)   bands (ev):

   -17.7530  -9.2766  -6.9906  -5.4700   5.0817   5.9344   7.6632   8.7397
    10.7400  11.3466  13.2369  15.6759  16.7428  17.8752  21.2039  21.7871

          k = 0.4000 0.0000 0.0000 (   944 PWs)   bands (ev):

   -17.3133  -9.8198  -7.5616  -4.9418   4.3046   6.5578   8.2497   9.3610
    11.0346  11.7637  13.4341  16.2350  16.2929  18.2877  20.2776  21.1071

          k = 0.4333 0.0000 0.0000 (   944 PWs)   bands (ev):

   -16.8391 -10.3427  -8.1223  -4.3791   3.5475   7.2324   8.8626  10.0331
    11.3122  12.1973  13.3644  16.2336  16.8192  18.2755  19.4001  20.3010

          k = 0.4667 0.0000 0.0000 (   944 PWs)   bands (ev):

   -16.3319 -10.8425  -8.6673  -3.7868   2.8163   7.9565   9.4742  10.7541
    11.5741  12.6324  13.0845  16.5352  17.4012  17.8641  18.5958  19.4508

          k = 0.5000 0.0000 0.0000 (   940 PWs)   bands (ev):

   -15.7937 -11.3170  -9.1918  -3.1709   2.1153   8.7272  10.0177  11.5205
    11.8186  12.8114  13.0434  17.0320  17.2838  17.7315  18.0870  18.6391

          k = 0.5333 0.0000 0.0000 (   946 PWs)   bands (ev):

   -15.2272 -11.7649  -9.6912  -2.5393   1.4483   9.5389  10.3554  12.0389
    12.3258  12.7858  13.3870  16.6806  17.1886  17.5619  17.8711  18.4100

          k = 0.5667 0.0000 0.0000 (   942 PWs)   bands (ev):

   -14.6361 -12.1845 -10.1606  -1.9022   0.8185  10.3814  10.3883  12.2220
    13.1546  13.1569  13.5994  16.1192  16.7028  17.1500  17.8681  18.4579

          k = 0.6000 0.0000 0.0000 (   940 PWs)   bands (ev):

   -14.0273 -12.5754 -10.5935  -1.2725   0.2284  10.2383  11.2314  12.3473
    13.6159  13.8152  13.9856  15.6350  16.3512  16.4780  17.7070  18.1378

          k = 0.6333 0.0000 0.0000 (   930 PWs)   bands (ev):

   -13.4143 -12.9366 -10.9775  -0.6666  -0.3200  10.0656  12.0297  12.3886
    13.4374  14.5994  14.7385  15.2514  15.8567  16.0764  17.3503  17.6779

          k = 0.6667 0.0000 0.0000 (   936 PWs)   bands (ev):

   -13.2677 -12.8369 -11.2758  -0.8251  -0.1029   9.9556  12.3272  12.6143
    13.1308  14.9712  15.2873  15.3139  15.3322  15.7906  17.1113  17.3221

          k = 0.6583 0.0144 0.0000 (   934 PWs)   bands (ev):

   -13.2408 -12.9467 -11.1798  -0.7744  -0.1700   9.9842  12.2991  12.5124
    13.1755  15.0430  15.0576  15.1966  15.4904  15.8367  17.2018  17.4607

          k = 0.6500 0.0289 0.0000 (   934 PWs)   bands (ev):

   -13.3094 -13.0161 -11.0094  -0.8652  -0.1019  10.0403  12.1933  12.3976
    13.1008  14.8074  15.0482  15.1397  15.5528  15.9160  17.4443  17.5833

          k = 0.6417 0.0433 0.0000 (   934 PWs)   bands (ev):

   -13.4233 -13.0802 -10.7806  -1.0228   0.0255  10.1243  12.0442  12.2697
    12.9091  14.5702  14.9360  15.0941  15.5220  16.1670  17.6249  17.8002

          k = 0.6333 0.0577 0.0000 (   948 PWs)   bands (ev):

   -13.5475 -13.1568 -10.5116  -1.1966   0.1609  10.2354  11.8620  12.1315
    12.6416  14.3461  14.8115  14.9736  15.4466  16.5658  17.6694  18.2159

          k = 0.6250 0.0722 0.0000 (   948 PWs)   bands (ev):

   -13.6702 -13.2441 -10.2168  -1.3696   0.2879  10.3716  11.6391  11.9877
    12.3475  14.1354  14.6837  14.8257  15.3584  17.0349  17.7443  18.6510

          k = 0.6167 0.0866 0.0000 (   952 PWs)   bands (ev):

   -13.7878 -13.3368  -9.9065  -1.5362   0.4010  10.5294  11.3570  11.8427
    12.0736  13.9380  14.5552  14.6735  15.2752  17.4880  17.8999  19.0733

          k = 0.6083 0.1010 0.0000 (   944 PWs)   bands (ev):

   -13.8985 -13.4308  -9.5881  -1.6939   0.4988  10.7041  11.0094  11.7000
    11.8467  13.7541  14.4286  14.5256  15.2079  17.7520  18.2862  19.3019

          k = 0.6000 0.1155 0.0000 (   944 PWs)   bands (ev):

   -14.0020 -13.5230  -9.2672  -1.8415   0.5814  10.6153  10.8893  11.5623
    11.6626  13.5836  14.3059  14.3852  15.1643  17.8942  18.8053  19.4776

          k = 0.5917 0.1299 0.0000 (   948 PWs)   bands (ev):

   -14.0976 -13.6115  -8.9484  -1.9783   0.6497  10.1994  11.0778  11.4319
    11.5077  13.4266  14.1889  14.2536  15.1503  18.0210  19.2479  19.4176

          k = 0.5833 0.1443 0.0000 (   952 PWs)   bands (ev):

   -14.1853 -13.6949  -8.6359  -2.1039   0.7051   9.7801  11.2616  11.3104
    11.3728  13.2831  14.0789  14.1319  15.1710  18.1508  19.2789  19.4591

          k = 0.5750 0.1588 0.0000 (   944 PWs)   bands (ev):

   -14.2647 -13.7721  -8.3335  -2.2180   0.7493   9.3699  11.1992  11.2534
    11.4330  13.1532  13.9772  14.0206  15.2294  18.2870  19.1531  19.5546

          k = 0.5667 0.1732 0.0000 (   946 PWs)   bands (ev):

   -14.3360 -13.8424  -8.0457  -2.3205   0.7837   8.9777  11.0988  11.1475
    11.5853  13.0368  13.8843  13.9201  15.3259  18.4295  19.0401  19.6090

          k = 0.5583 0.1876 0.0000 (   946 PWs)   bands (ev):

   -14.3990 -13.9052  -7.7763  -2.4111   0.8102   8.6117  11.0096  11.0542
    11.7144  12.9340  13.8010  13.8309  15.4572  18.5779  18.9401  19.6416

          k = 0.5500 0.2021 0.0000 (   946 PWs)   bands (ev):

   -14.4536 -13.9604  -7.5299  -2.4899   0.8299   8.2781  10.9320  10.9733
    11.8187  12.8447  13.7278  13.7533  15.6156  18.7311  18.8530  19.6601

          k = 0.5417 0.2165 0.0000 (   946 PWs)   bands (ev):

   -14.4999 -14.0074  -7.3110  -2.5567   0.8444   7.9833  10.8660  10.9048
    11.8993  12.7691  13.6651  13.6874  15.7889  18.7789  18.8886  19.6693

          k = 0.5333 0.2309 0.0000 (   936 PWs)   bands (ev):

   -14.5377 -14.0461  -7.1239  -2.6113   0.8547   7.7329  10.8119  10.8485
    11.9589  12.7072  13.6132  13.6335  15.9625  18.7179  19.0495  19.6728

          k = 0.5250 0.2454 0.0000 (   928 PWs)   bands (ev):

   -14.5670 -14.0763  -6.9730  -2.6539   0.8617   7.5322  10.7697  10.8047
    12.0007  12.6590  13.5725  13.5916  16.1195  18.6701  19.2131  19.6731

          k = 0.5167 0.2598 0.0000 (   924 PWs)   bands (ev):

   -14.5880 -14.0980  -6.8622  -2.6844   0.8662   7.3854  10.7396  10.7733
    12.0280  12.6244  13.5431  13.5617  16.2446  18.6358  19.3771  19.6720

          k = 0.5083 0.2742 0.0000 (   930 PWs)   bands (ev):

   -14.6007 -14.1110  -6.7946  -2.7027   0.8686   7.2958  10.7214  10.7545
    12.0434  12.6037  13.5255  13.5438  16.3251  18.6151  19.5367  19.6707

          k = 0.5000 0.2887 0.0000 (   934 PWs)   bands (ev):

   -14.6049 -14.1154  -6.7718  -2.7088   0.8694   7.2654  10.7154  10.7482
    12.0483  12.5968  13.5195  13.5378  16.3528  18.6081  19.6433  19.6683

          k = 0.4750 0.2742 0.0000 (   926 PWs)   bands (ev):

   -14.9500 -13.7493  -6.7556  -2.8248   1.0100   7.2722   9.9649  11.5267
    11.5549  12.7626  13.0961  14.3229  16.2740  18.6635  19.1376  19.6954

          k = 0.4500 0.2598 0.0000 (   927 PWs)   bands (ev):

   -15.4404 -13.1964  -6.7073  -3.1284   1.3869   7.2908   9.2311  10.8806
    12.0290  12.3419  13.7722  15.1383  16.0764  18.5752  18.8223  19.3612

          k = 0.4250 0.2454 0.0000 (   929 PWs)   bands (ev):

   -15.9237 -12.6095  -6.6269  -3.5385   1.9178   7.3199   8.5346  10.2162
    11.3305  13.1649  14.3534  15.8871  15.9636  17.9987  18.8454  19.0753

          k = 0.4000 0.2309 0.0000 (   935 PWs)   bands (ev):

   -16.3870 -12.0027  -6.5149  -3.9956   2.5414   7.3483   7.8871   9.5778
    10.6691  13.9717  14.5740  15.9935  16.7792  17.4269  18.1909  19.4219

          k = 0.3750 0.2165 0.0000 (   935 PWs)   bands (ev):

   -16.8269 -11.3812  -6.3718  -4.4656   3.2212   7.1712   7.4933   8.9710
    10.0462  14.3602  14.7171  16.4855  16.8712  17.4216  17.5772  19.8657

          k = 0.3500 0.2021 0.0000 (   929 PWs)   bands (ev):

   -17.2419 -10.7487  -6.1984  -4.9299   3.9355   6.6233   7.5170   8.3990
     9.4632  13.9851  15.3228  16.3381  16.6205  17.0983  18.2988  20.4027

          k = 0.3250 0.1876 0.0000 (   933 PWs)   bands (ev):

   -17.6309 -10.1093  -5.9956  -5.3781   4.6677   6.0809   7.5780   7.8641
     8.9226  13.5723  15.6660  15.7848  15.8460  17.7159  19.0369  21.0051

          k = 0.3000 0.1732 0.0000 (   931 PWs)   bands (ev):

   -17.9930  -9.4676  -5.8036  -5.7647   5.4052   5.5740   7.3700   7.6382
     8.4310  13.1597  14.8920  15.3658  15.7982  18.3092  19.8639  21.6027

          k = 0.2750 0.1588 0.0000 (   929 PWs)   bands (ev):

   -18.3278  -8.8287  -6.2022  -5.5072   5.1057   6.1219   6.9333   7.6497
     8.0289  12.7628  14.0307  14.9264  15.6760  18.8678  20.8062  22.0859

          k = 0.2500 0.1443 0.0000 (   929 PWs)   bands (ev):

   -18.6349  -8.1990  -6.5714  -5.2252   4.6770   6.4005   6.9626   7.4263
     7.8960  12.3895  13.1904  14.5221  15.4207  19.3747  21.8315  22.4065

          k = 0.2250 0.1299 0.0000 (   931 PWs)   bands (ev):

   -18.9138  -7.5859  -6.9090  -4.9215   4.2886   6.0610   7.0756   7.6292
     7.9170  12.0448  12.3869  14.1542  15.0966  19.7939  22.6651  22.8597

          k = 0.2000 0.1155 0.0000 (   929 PWs)   bands (ev):

   -19.1642  -7.2137  -6.9977  -4.6000   3.9406   5.7246   6.7404   7.9385
     8.3022  11.6383  11.7316  13.8230  14.7469  20.0802  23.0077  23.5719

          k = 0.1750 0.1010 0.0000 (   919 PWs)   bands (ev):

   -19.3856  -7.4843  -6.4439  -4.2661   3.6333   5.4233   6.4398   7.9277
     8.9400  10.9645  11.4520  13.5290  14.3999  20.2186  23.5144  23.6074

          k = 0.1500 0.0866 0.0000 (   915 PWs)   bands (ev):

   -19.5780  -7.7201  -5.9351  -3.9279   3.3668   5.1605   6.1776   7.8632
     9.5285  10.3890  11.2076  13.2724  14.0763  20.2435  23.4274  24.0342

          k = 0.1250 0.0722 0.0000 (   911 PWs)   bands (ev):

   -19.7412  -7.9206  -5.4812  -3.5966   3.1412   4.9375   5.9552   7.7308
     9.9342  10.0550  10.9995  13.0536  13.7907  20.2044  23.1756  23.7027

          k = 0.1000 0.0577 0.0000 (   901 PWs)   bands (ev):

   -19.8748  -8.0852  -5.0920  -3.2869   2.9566   4.7546   5.7731   7.5361
     9.6071  10.5082  10.8284  12.8731  13.5536  20.1396  22.8725  23.4662

          k = 0.0750 0.0433 0.0000 (   909 PWs)   bands (ev):

   -19.9790  -8.2135  -4.7773  -3.0171   2.8130   4.6121   5.6314   7.3123
     9.3898  10.6941  10.8765  12.7314  13.3704  20.0721  22.5748  23.3118

          k = 0.0500 0.0289 0.0000 (   909 PWs)   bands (ev):

   -20.0534  -8.3054  -4.5449  -2.8058   2.7105   4.5103   5.5303   7.1097
     9.2552  10.5986  11.1479  12.6296  13.2419  20.0162  22.3357  23.2121

          k = 0.0250 0.0144 0.0000 (   907 PWs)   bands (ev):

   -20.0981  -8.3605  -4.4022  -2.6707   2.6490   4.4492   5.4697   6.9705
     9.1813  10.5411  11.3149  12.5682  13.1665  19.9798  22.1835  23.1549

          k = 0.0000 0.0000 0.0000 (   915 PWs)   bands (ev):

   -20.1130  -8.3789  -4.3542  -2.6243   2.6284   4.4288   5.4494   6.9210
     9.1572  10.5219  11.3713  12.5476  13.1417  19.9671  22.1312  23.1361

     Writing output data file graphene.save/

     init_run     :      0.31s CPU      0.49s WALL (       1 calls)
     electrons    :     26.21s CPU     26.45s WALL (       1 calls)

     Called by init_run:
     wfcinit      :      0.00s CPU      0.00s WALL (       1 calls)
     potinit      :      0.01s CPU      0.02s WALL (       1 calls)
     hinit0       :      0.27s CPU      0.38s WALL (       1 calls)

     Called by electrons:
     c_bands      :     26.21s CPU     26.45s WALL (       1 calls)
     v_of_rho     :      0.01s CPU      0.01s WALL (       1 calls)
     newd         :      0.01s CPU      0.03s WALL (       1 calls)

     Called by c_bands:
     init_us_2    :      0.02s CPU      0.02s WALL (      61 calls)
     cegterg      :     24.73s CPU     24.86s WALL (      84 calls)

     Called by sum_band:

     Called by *egterg:
     h_psi        :     15.84s CPU     15.93s WALL (    1428 calls)
     s_psi        :      0.63s CPU      0.63s WALL (    1428 calls)
     g_psi        :      0.14s CPU      0.14s WALL (    1283 calls)
     cdiaghg      :      2.06s CPU      2.13s WALL (    1344 calls)

     Called by h_psi:
     h_psi:pot    :     15.79s CPU     15.88s WALL (    1428 calls)
     h_psi:calbec :      0.64s CPU      0.64s WALL (    1428 calls)
     vloc_psi     :     14.51s CPU     14.60s WALL (    1428 calls)
     add_vuspsi   :      0.63s CPU      0.64s WALL (    1428 calls)

     General routines
     calbec       :      0.63s CPU      0.64s WALL (    1428 calls)
     fft          :      0.03s CPU      0.13s WALL (       5 calls)
     ffts         :      0.00s CPU      0.00s WALL (       1 calls)
     fftw         :     12.92s CPU     13.00s WALL (   26740 calls)
     interpolate  :      0.00s CPU      0.00s WALL (       1 calls)

     Parallel routines

     PWSCF        :     26.87s CPU     27.67s WALL


   This run was terminated on:  14:38:28  16Nov2022            

=------------------------------------------------------------------------------=
   JOB DONE.
=------------------------------------------------------------------------------=
