
     Program BANDS v.6.4.1 starts on 16Nov2022 at 15:20: 5 

     This program is part of the open-source Quantum ESPRESSO suite
     for quantum simulation of materials; please cite
         "P. Giannozzi et al., J. Phys.:Condens. Matter 21 395502 (2009);
         "P. Giannozzi et al., J. Phys.:Condens. Matter 29 465901 (2017);
          URL http://www.quantum-espresso.org", 
     in publications or presentations arising from this work. More details at
     http://www.quantum-espresso.org/quote

     Parallel version (MPI), running on     1 processors

     MPI processes distributed on     1 nodes

     Reading data from directory:
     ./work/graphene.save/

     IMPORTANT: XC functional enforced from input :
     Exchange-correlation      = PZ ( 1  1  0  0 0 0)
     Any further DFT definition will be discarded
     Please, verify this is what you really want


     G-vector sticks info
     --------------------
     sticks:   dense  smooth     PW     G-vecs:    dense   smooth      PW
     Sum         211     169     61                10409     7409    1501


     negative rho (up, down):  1.647E-04 0.000E+00
     high-symmetry point:  0.0000 0.0000 0.0000   x coordinate   0.0000
     high-symmetry point:  0.6667 0.0000 0.0000   x coordinate   0.6667
     high-symmetry point:  0.5000 0.2887 0.0000   x coordinate   1.0000
     high-symmetry point:  0.0000 0.0000 0.0000   x coordinate   1.5774

     Plottable bands (eV) written to file graphene.band.gnu
     Bands written to file graphene.band

 **************************************************************************

                    xk=(   0.00000,   0.00000,   0.00000  )

     point group D_6h(6/mmm)
     there are 12 classes
     the character table:

       E     2C6   2C3   C2    3C2'  3C2'' i     2S3   2S6   s_h   3s_d  3s_v 
A_1g   1.00  1.00  1.00  1.00  1.00  1.00  1.00  1.00  1.00  1.00  1.00  1.00
A_2g   1.00  1.00  1.00  1.00 -1.00 -1.00  1.00  1.00  1.00  1.00 -1.00 -1.00
B_1g   1.00 -1.00  1.00 -1.00  1.00 -1.00  1.00 -1.00  1.00 -1.00  1.00 -1.00
B_2g   1.00 -1.00  1.00 -1.00 -1.00  1.00  1.00 -1.00  1.00 -1.00 -1.00  1.00
E_1g   2.00  1.00 -1.00 -2.00  0.00  0.00  2.00  1.00 -1.00 -2.00  0.00  0.00
E_2g   2.00 -1.00 -1.00  2.00  0.00  0.00  2.00 -1.00 -1.00  2.00  0.00  0.00
A_1u   1.00  1.00  1.00  1.00  1.00  1.00 -1.00 -1.00 -1.00 -1.00 -1.00 -1.00
A_2u   1.00  1.00  1.00  1.00 -1.00 -1.00 -1.00 -1.00 -1.00 -1.00  1.00  1.00
B_1u   1.00 -1.00  1.00 -1.00  1.00 -1.00 -1.00  1.00 -1.00  1.00 -1.00  1.00
B_2u   1.00 -1.00  1.00 -1.00 -1.00  1.00 -1.00  1.00 -1.00  1.00  1.00 -1.00
E_1u   2.00  1.00 -1.00 -2.00  0.00  0.00 -2.00 -1.00  1.00  2.00  0.00  0.00
E_2u   2.00 -1.00 -1.00  2.00  0.00  0.00 -2.00  1.00  1.00 -2.00  0.00  0.00

     the symmetry operations in each class and the name of the first element:

     E        1
                                                                 
     2C6      5    6
                                                                 
     2C3      7    8
                                                                 
     C2       2
                                                                 
     3C2'     4   12   11
                                                                 
     3C2''    3    9   10
                                                                 
     i       13
                                                                 
     2S3     17   18
                                                                 
     2S6     19   20
                                                                 
     s_h     14
                                                                 
     3s_d    16   24   23
                                                                 
     3s_v    15   21   22
                                                                 

     Band symmetry, D_6h(6/mmm) point group:

     e(  1 -  1) =    -20.11322  eV     1   --> A_1g           
     e(  2 -  2) =     -8.37378  eV     1   --> A_2u           
     e(  3 -  4) =     -3.51304  eV     2   --> E_2g           
     e(  5 -  5) =      2.62827  eV     1   --> A_1g           
     e(  6 -  6) =      4.43121  eV     1   --> A_2u           
     e(  7 -  7) =      5.45244  eV     1   --> A_1g           
     e(  8 -  9) =      8.03333  eV     2   --> E_1u           
     e( 10 - 10) =     10.52714  eV     1   --> A_2u           
     e( 11 - 11) =     11.34465  eV     1   --> B_1g           
     e( 12 - 12) =     12.54875  eV     1   --> A_1g           
     e( 13 - 13) =     13.12233  eV     1   --> B_2u           
     e( 14 - 14) =     19.98058  eV     1   --> A_2u           
     e( 15 - 15) =     22.15551  eV     1   --> A_1g           
     e( 16 - 16) =     23.13767  eV     1   --> A_1g           

 **************************************************************************

 **************************************************************************

                    xk=(   0.03333,   0.00000,   0.00000  )

     point group C_2v (mm2) 
     there are  4 classes
     the character table:

       E     C2    s_v   s_v' 
A_1    1.00  1.00  1.00  1.00
A_2    1.00  1.00 -1.00 -1.00
B_1    1.00 -1.00  1.00 -1.00
B_2    1.00 -1.00 -1.00  1.00

     the symmetry operations in each class and the name of the first element:

     E        1
                                                                 
     C2       2
                                                                 
     s_v      4
                                                                 
     s_v'     3
                                                                 

     Band symmetry, C_2v (mm2)  point group:

     e(  1 -  1) =    -20.09314  eV     1   --> A_1  D_1  S_1  
     e(  2 -  2) =     -8.34942  eV     1   --> B_1  D_3  S_3  
     e(  3 -  3) =     -3.59351  eV     1   --> B_2  D_4  S_4  
     e(  4 -  4) =     -3.55815  eV     1   --> A_1  D_1  S_1  
     e(  5 -  5) =      2.65564  eV     1   --> A_1  D_1  S_1  
     e(  6 -  6) =      4.45833  eV     1   --> B_1  D_3  S_3  
     e(  7 -  7) =      5.47942  eV     1   --> A_1  D_1  S_1  
     e(  8 -  8) =      8.04688  eV     1   --> A_1  D_1  S_1  
     e(  9 -  9) =      8.12220  eV     1   --> B_2  D_4  S_4  
     e( 10 - 10) =     10.55263  eV     1   --> B_1  D_3  S_3  
     e( 11 - 11) =     11.27271  eV     1   --> A_2  D_2  S_2  
     e( 12 - 12) =     12.57624  eV     1   --> A_1  D_1  S_1  
     e( 13 - 13) =     13.15260  eV     1   --> B_2  D_4  S_4  
     e( 14 - 14) =     19.99607  eV     1   --> B_1  D_3  S_3  
     e( 15 - 15) =     22.22300  eV     1   --> A_1  D_1  S_1  
     e( 16 - 16) =     23.16303  eV     1   --> A_1  D_1  S_1  

 **************************************************************************

 **************************************************************************

                    xk=(   0.06667,   0.00000,   0.00000  )

     Band symmetry, C_2v (mm2)  point group:

     e(  1 -  1) =    -20.03326  eV     1   --> A_1  D_1  S_1  
     e(  2 -  2) =     -8.27648  eV     1   --> B_1  D_3  S_3  
     e(  3 -  3) =     -3.82707  eV     1   --> B_2  D_4  S_4  
     e(  4 -  4) =     -3.69247  eV     1   --> A_1  D_1  S_1  
     e(  5 -  5) =      2.73763  eV     1   --> A_1  D_1  S_1  
     e(  6 -  6) =      4.53964  eV     1   --> B_1  D_3  S_3  
     e(  7 -  7) =      5.56027  eV     1   --> A_1  D_1  S_1  
     e(  8 -  8) =      8.08763  eV     1   --> A_1  D_1  S_1  
     e(  9 -  9) =      8.37516  eV     1   --> B_2  D_4  S_4  
     e( 10 - 10) =     10.62892  eV     1   --> B_1  D_3  S_3  
     e( 11 - 11) =     11.06033  eV     1   --> A_2  D_2  S_2  
     e( 12 - 12) =     12.65805  eV     1   --> A_1  D_1  S_1  
     e( 13 - 13) =     13.24627  eV     1   --> B_2  D_4  S_4  
     e( 14 - 14) =     20.03977  eV     1   --> B_1  D_3  S_3  
     e( 15 - 15) =     22.41746  eV     1   --> A_1  D_1  S_1  
     e( 16 - 16) =     23.24002  eV     1   --> A_1  D_1  S_1  

 **************************************************************************

 **************************************************************************

                    xk=(   0.10000,   0.00000,   0.00000  )

     Band symmetry, C_2v (mm2)  point group:

     e(  1 -  1) =    -19.93339  eV     1   --> A_1  D_1  S_1  
     e(  2 -  2) =     -8.15516  eV     1   --> B_1  D_3  S_3  
     e(  3 -  3) =     -4.18975  eV     1   --> B_2  D_4  S_4  
     e(  4 -  4) =     -3.91076  eV     1   --> A_1  D_1  S_1  
     e(  5 -  5) =      2.87438  eV     1   --> A_1  D_1  S_1  
     e(  6 -  6) =      4.67502  eV     1   --> B_1  D_3  S_3  
     e(  7 -  7) =      5.69521  eV     1   --> A_1  D_1  S_1  
     e(  8 -  8) =      8.15946  eV     1   --> A_1  D_1  S_1  
     e(  9 -  9) =      8.76000  eV     1   --> B_2  D_4  S_4  
     e( 10 - 10) =     10.71712  eV     1   --> A_2  D_2  S_2  
     e( 11 - 11) =     10.75553  eV     1   --> B_1  D_3  S_3  
     e( 12 - 12) =     12.79378  eV     1   --> A_1  D_1  S_1  
     e( 13 - 13) =     13.41142  eV     1   --> B_2  D_4  S_4  
     e( 14 - 14) =     20.10212  eV     1   --> B_1  D_3  S_3  
     e( 15 - 15) =     22.71370  eV     1   --> A_1  D_1  S_1  
     e( 16 - 16) =     23.37690  eV     1   --> A_1  D_1  S_1  

 **************************************************************************

 **************************************************************************

                    xk=(   0.13333,   0.00000,   0.00000  )

     Band symmetry, C_2v (mm2)  point group:

     e(  1 -  1) =    -19.79383  eV     1   --> A_1  D_1  S_1  
     e(  2 -  2) =     -7.98569  eV     1   --> B_1  D_3  S_3  
     e(  3 -  3) =     -4.65232  eV     1   --> B_2  D_4  S_4  
     e(  4 -  4) =     -4.20597  eV     1   --> A_1  D_1  S_1  
     e(  5 -  5) =      3.06589  eV     1   --> A_1  D_1  S_1  
     e(  6 -  6) =      4.86430  eV     1   --> B_1  D_3  S_3  
     e(  7 -  7) =      5.88438  eV     1   --> A_1  D_1  S_1  
     e(  8 -  8) =      8.26594  eV     1   --> A_1  D_1  S_1  
     e(  9 -  9) =      9.22928  eV     1   --> B_2  D_4  S_4  
     e( 10 - 10) =     10.25806  eV     1   --> A_2  D_2  S_2  
     e( 11 - 11) =     10.93160  eV     1   --> B_1  D_3  S_3  
     e( 12 - 12) =     12.98250  eV     1   --> A_1  D_1  S_1  
     e( 13 - 13) =     13.66235  eV     1   --> B_2  D_4  S_4  
     e( 14 - 14) =     20.16060  eV     1   --> B_1  D_3  S_3  
     e( 15 - 15) =     23.05686  eV     1   --> A_1  D_1  S_1  
     e( 16 - 16) =     23.59761  eV     1   --> A_1  D_1  S_1  

 **************************************************************************

 **************************************************************************

                    xk=(   0.16667,   0.00000,   0.00000  )

     Band symmetry, C_2v (mm2)  point group:

     e(  1 -  1) =    -19.61467  eV     1   --> A_1  D_1  S_1  
     e(  2 -  2) =     -7.76871  eV     1   --> B_1  D_3  S_3  
     e(  3 -  3) =     -5.18572  eV     1   --> B_2  D_4  S_4  
     e(  4 -  4) =     -4.56849  eV     1   --> A_1  D_1  S_1  
     e(  5 -  5) =      3.31219  eV     1   --> A_1  D_1  S_1  
     e(  6 -  6) =      5.10711  eV     1   --> B_1  D_3  S_3  
     e(  7 -  7) =      6.12798  eV     1   --> A_1  D_1  S_1  
     e(  8 -  8) =      8.41048  eV     1   --> A_1  D_1  S_1  
     e(  9 -  9) =      9.70090  eV     1   --> A_2  D_2  S_2  
     e( 10 - 10) =      9.73161  eV     1   --> B_2  D_4  S_4  
     e( 11 - 11) =     11.15558  eV     1   --> B_1  D_3  S_3  
     e( 12 - 12) =     13.22330  eV     1   --> A_1  D_1  S_1  
     e( 13 - 13) =     14.01696  eV     1   --> B_2  D_4  S_4  
     e( 14 - 14) =     20.16342  eV     1   --> B_1  D_3  S_3  
     e( 15 - 15) =     23.36242  eV     1   --> A_1  D_1  S_1  
     e( 16 - 16) =     23.86296  eV     1   --> B_1  D_3  S_3  

 **************************************************************************

 **************************************************************************

                    xk=(   0.20000,   0.00000,   0.00000  )

     Band symmetry, C_2v (mm2)  point group:

     e(  1 -  1) =    -19.39614  eV     1   --> A_1  D_1  S_1  
     e(  2 -  2) =     -7.50487  eV     1   --> B_1  D_3  S_3  
     e(  3 -  3) =     -5.76470  eV     1   --> B_2  D_4  S_4  
     e(  4 -  4) =     -4.98761  eV     1   --> A_1  D_1  S_1  
     e(  5 -  5) =      3.61325  eV     1   --> A_1  D_1  S_1  
     e(  6 -  6) =      5.40301  eV     1   --> B_1  D_3  S_3  
     e(  7 -  7) =      6.42607  eV     1   --> A_1  D_1  S_1  
     e(  8 -  8) =      8.59681  eV     1   --> A_1  D_1  S_1  
     e(  9 -  9) =      9.06632  eV     1   --> A_2  D_2  S_2  
     e( 10 - 10) =     10.22043  eV     1   --> B_2  D_4  S_4  
     e( 11 - 11) =     11.42505  eV     1   --> B_1  D_3  S_3  
     e( 12 - 12) =     13.51527  eV     1   --> A_1  D_1  S_1  
     e( 13 - 13) =     14.49181  eV     1   --> B_2  D_4  S_4  
     e( 14 - 14) =     20.00462  eV     1   --> B_1  D_3  S_3  
     e( 15 - 15) =     23.07540  eV     1   --> B_1  D_3  S_3  
     e( 16 - 16) =     23.59157  eV     1   --> A_1  D_1  S_1  

 **************************************************************************

 **************************************************************************

                    xk=(   0.23333,   0.00000,   0.00000  )

     Band symmetry, C_2v (mm2)  point group:

     e(  1 -  1) =    -19.13860  eV     1   --> A_1  D_1  S_1  
     e(  2 -  2) =     -7.19517  eV     1   --> B_1  D_3  S_3  
     e(  3 -  3) =     -6.36994  eV     1   --> B_2  D_4  S_4  
     e(  4 -  4) =     -5.45210  eV     1   --> A_1  D_1  S_1  
     e(  5 -  5) =      3.96896  eV     1   --> A_1  D_1  S_1  
     e(  6 -  6) =      5.75126  eV     1   --> B_1  D_3  S_3  
     e(  7 -  7) =      6.77867  eV     1   --> A_1  D_1  S_1  
     e(  8 -  8) =      8.37300  eV     1   --> A_2  D_2  S_2  
     e(  9 -  9) =      8.82625  eV     1   --> A_1  D_1  S_1  
     e( 10 - 10) =     10.66254  eV     1   --> B_2  D_4  S_4  
     e( 11 - 11) =     11.73590  eV     1   --> B_1  D_3  S_3  
     e( 12 - 12) =     13.85748  eV     1   --> A_1  D_1  S_1  
     e( 13 - 13) =     15.09131  eV     1   --> B_2  D_4  S_4  
     e( 14 - 14) =     19.56128  eV     1   --> B_1  D_3  S_3  
     e( 15 - 15) =     22.67033  eV     1   --> B_1  D_3  S_3  
     e( 16 - 16) =     23.71162  eV     1   --> A_1  D_1  S_1  

 **************************************************************************

 **************************************************************************

                    xk=(   0.26667,   0.00000,   0.00000  )

     Band symmetry, C_2v (mm2)  point group:

     e(  1 -  1) =    -18.84246  eV     1   --> A_1  D_1  S_1  
     e(  2 -  2) =     -6.98652  eV     1   --> B_2  D_4  S_4  
     e(  3 -  3) =     -6.84080  eV     1   --> B_1  D_3  S_3  
     e(  4 -  4) =     -5.95096  eV     1   --> A_1  D_1  S_1  
     e(  5 -  5) =      4.37916  eV     1   --> A_1  D_1  S_1  
     e(  6 -  6) =      6.15083  eV     1   --> B_1  D_3  S_3  
     e(  7 -  7) =      7.18564  eV     1   --> A_1  D_1  S_1  
     e(  8 -  8) =      7.63967  eV     1   --> A_2  D_2  S_2  
     e(  9 -  9) =      9.09979  eV     1   --> A_1  D_1  S_1  
     e( 10 - 10) =     11.04476  eV     1   --> B_2  D_4  S_4  
     e( 11 - 11) =     12.08105  eV     1   --> B_1  D_3  S_3  
     e( 12 - 12) =     14.24908  eV     1   --> A_1  D_1  S_1  
     e( 13 - 13) =     15.80119  eV     1   --> B_2  D_4  S_4  
     e( 14 - 14) =     18.86480  eV     1   --> B_1  D_3  S_3  
     e( 15 - 15) =     22.62401  eV     1   --> B_1  D_3  S_3  
     e( 16 - 16) =     23.54190  eV     1   --> A_1  D_1  S_1  

 **************************************************************************

 **************************************************************************

                    xk=(   0.30000,   0.00000,   0.00000  )

     Band symmetry, C_2v (mm2)  point group:

     e(  1 -  1) =    -18.50815  eV     1   --> A_1  D_1  S_1  
     e(  2 -  2) =     -7.60291  eV     1   --> B_2  D_4  S_4  
     e(  3 -  3) =     -6.47363  eV     1   --> A_1  D_1  S_1  
     e(  4 -  4) =     -6.44325  eV     1   --> B_1  D_3  S_3  
     e(  5 -  5) =      4.84363  eV     1   --> A_1  D_1  S_1  
     e(  6 -  6) =      6.60011  eV     1   --> B_1  D_3  S_3  
     e(  7 -  7) =      6.88186  eV     1   --> A_2  D_2  S_2  
     e(  8 -  8) =      7.64680  eV     1   --> A_1  D_1  S_1  
     e(  9 -  9) =      9.41731  eV     1   --> A_1  D_1  S_1  
     e( 10 - 10) =     11.37128  eV     1   --> B_2  D_4  S_4  
     e( 11 - 11) =     12.44730  eV     1   --> B_1  D_3  S_3  
     e( 12 - 12) =     14.68891  eV     1   --> A_1  D_1  S_1  
     e( 13 - 13) =     16.58802  eV     1   --> B_2  D_4  S_4  
     e( 14 - 14) =     18.07071  eV     1   --> B_1  D_3  S_3  
     e( 15 - 15) =     22.78173  eV     1   --> B_1  D_3  S_3  
     e( 16 - 16) =     22.91529  eV     1   --> A_1  D_1  S_1  

 **************************************************************************

 **************************************************************************

                    xk=(   0.33333,   0.00000,   0.00000  )

     Band symmetry, C_2v (mm2)  point group:

     e(  1 -  1) =    -18.13629  eV     1   --> A_1  D_1  S_1  
     e(  2 -  2) =     -8.21115  eV     1   --> B_2  D_4  S_4  
     e(  3 -  3) =     -7.01050  eV     1   --> A_1  D_1  S_1  
     e(  4 -  4) =     -6.00440  eV     1   --> B_1  D_3  S_3  
     e(  5 -  5) =      5.36206  eV     1   --> A_1  D_1  S_1  
     e(  6 -  6) =      6.11321  eV     1   --> A_2  D_2  S_2  
     e(  7 -  7) =      7.09660  eV     1   --> B_1  D_3  S_3  
     e(  8 -  8) =      8.16177  eV     1   --> A_1  D_1  S_1  
     e(  9 -  9) =      9.77601  eV     1   --> A_1  D_1  S_1  
     e( 10 - 10) =     11.65355  eV     1   --> B_2  D_4  S_4  
     e( 11 - 11) =     12.80842  eV     1   --> B_1  D_3  S_3  
     e( 12 - 12) =     15.17528  eV     1   --> A_1  D_1  S_1  
     e( 13 - 13) =     17.30773  eV     1   --> B_1  D_3  S_3  
     e( 14 - 14) =     17.39835  eV     1   --> B_2  D_4  S_4  
     e( 15 - 15) =     22.03782  eV     1   --> A_1  D_1  S_1  
     e( 16 - 16) =     22.60035  eV     1   --> B_2  D_4  S_4  

 **************************************************************************

 **************************************************************************

                    xk=(   0.36667,   0.00000,   0.00000  )

     Band symmetry, C_2v (mm2)  point group:

     e(  1 -  1) =    -17.72773  eV     1   --> A_1  D_1  S_1  
     e(  2 -  2) =     -8.80503  eV     1   --> B_2  D_4  S_4  
     e(  3 -  3) =     -7.55298  eV     1   --> A_1  D_1  S_1  
     e(  4 -  4) =     -5.52702  eV     1   --> B_1  D_3  S_3  
     e(  5 -  5) =      5.34497  eV     1   --> A_2  D_2  S_2  
     e(  6 -  6) =      5.93390  eV     1   --> A_1  D_1  S_1  
     e(  7 -  7) =      7.63594  eV     1   --> B_1  D_3  S_3  
     e(  8 -  8) =      8.72972  eV     1   --> A_1  D_1  S_1  
     e(  9 -  9) =     10.17333  eV     1   --> A_1  D_1  S_1  
     e( 10 - 10) =     11.90278  eV     1   --> B_2  D_4  S_4  
     e( 11 - 11) =     13.11016  eV     1   --> B_1  D_3  S_3  
     e( 12 - 12) =     15.70513  eV     1   --> A_1  D_1  S_1  
     e( 13 - 13) =     16.68102  eV     1   --> B_1  D_3  S_3  
     e( 14 - 14) =     18.14737  eV     1   --> B_2  D_4  S_4  
     e( 15 - 15) =     21.10044  eV     1   --> A_1  D_1  S_1  
     e( 16 - 16) =     21.69938  eV     1   --> B_2  D_4  S_4  

 **************************************************************************

 **************************************************************************

                    xk=(   0.40000,   0.00000,   0.00000  )

     Band symmetry, C_2v (mm2)  point group:

     e(  1 -  1) =    -17.28373  eV     1   --> A_1  D_1  S_1  
     e(  2 -  2) =     -9.37983  eV     1   --> B_2  D_4  S_4  
     e(  3 -  3) =     -8.09371  eV     1   --> A_1  D_1  S_1  
     e(  4 -  4) =     -5.01433  eV     1   --> B_1  D_3  S_3  
     e(  5 -  5) =      4.58589  eV     1   --> A_2  D_2  S_2  
     e(  6 -  6) =      6.55842  eV     1   --> A_1  D_1  S_1  
     e(  7 -  7) =      8.21040  eV     1   --> B_1  D_3  S_3  
     e(  8 -  8) =      9.34955  eV     1   --> A_1  D_1  S_1  
     e(  9 -  9) =     10.60489  eV     1   --> A_1  D_1  S_1  
     e( 10 - 10) =     12.12744  eV     1   --> B_2  D_4  S_4  
     e( 11 - 11) =     13.25662  eV     1   --> B_1  D_3  S_3  
     e( 12 - 12) =     16.27308  eV     1   --> A_1  D_1  S_1  
     e( 13 - 13) =     16.31435  eV     1   --> B_1  D_3  S_3  
     e( 14 - 14) =     18.65445  eV     1   --> B_2  D_4  S_4  
     e( 15 - 15) =     20.17567  eV     1   --> A_1  D_1  S_1  
     e( 16 - 16) =     21.03634  eV     1   --> B_2  D_4  S_4  

 **************************************************************************

 **************************************************************************

                    xk=(   0.43333,   0.00000,   0.00000  )

     Band symmetry, C_2v (mm2)  point group:

     e(  1 -  1) =    -16.80539  eV     1   --> A_1  D_1  S_1  
     e(  2 -  2) =     -9.93215  eV     1   --> B_2  D_4  S_4  
     e(  3 -  3) =     -8.62555  eV     1   --> A_1  D_1  S_1  
     e(  4 -  4) =     -4.47035  eV     1   --> B_1  D_3  S_3  
     e(  5 -  5) =      3.84426  eV     1   --> A_2  D_2  S_2  
     e(  6 -  6) =      7.23461  eV     1   --> A_1  D_1  S_1  
     e(  7 -  7) =      8.80485  eV     1   --> B_1  D_3  S_3  
     e(  8 -  8) =     10.01929  eV     1   --> A_1  D_1  S_1  
     e(  9 -  9) =     11.06375  eV     1   --> A_1  D_1  S_1  
     e( 10 - 10) =     12.33237  eV     1   --> B_2  D_4  S_4  
     e( 11 - 11) =     13.17149  eV     1   --> B_1  D_3  S_3  
     e( 12 - 12) =     16.30825  eV     1   --> B_1  D_3  S_3  
     e( 13 - 13) =     16.86874  eV     1   --> A_1  D_1  S_1  
     e( 14 - 14) =     18.62477  eV     1   --> B_2  D_4  S_4  
     e( 15 - 15) =     19.29438  eV     1   --> A_1  D_1  S_1  
     e( 16 - 16) =     20.29013  eV     1   --> A_2  D_2  S_2  

 **************************************************************************

 **************************************************************************

                    xk=(   0.46667,   0.00000,   0.00000  )

     Band symmetry, C_2v (mm2)  point group:

     e(  1 -  1) =    -16.29463  eV     1   --> A_1  D_1  S_1  
     e(  2 -  2) =    -10.45942  eV     1   --> B_2  D_4  S_4  
     e(  3 -  3) =     -9.14249  eV     1   --> A_1  D_1  S_1  
     e(  4 -  4) =     -3.90044  eV     1   --> B_1  D_3  S_3  
     e(  5 -  5) =      3.12639  eV     1   --> A_2  D_2  S_2  
     e(  6 -  6) =      7.96084  eV     1   --> A_1  D_1  S_1  
     e(  7 -  7) =      9.38680  eV     1   --> B_1  D_3  S_3  
     e(  8 -  8) =     10.73491  eV     1   --> A_1  D_1  S_1  
     e(  9 -  9) =     11.54134  eV     1   --> A_1  D_1  S_1  
     e( 10 - 10) =     12.51762  eV     1   --> B_2  D_4  S_4  
     e( 11 - 11) =     12.93414  eV     1   --> B_1  D_3  S_3  
     e( 12 - 12) =     16.61373  eV     1   --> B_1  D_3  S_3  
     e( 13 - 13) =     17.46023  eV     1   --> A_1  D_1  S_1  
     e( 14 - 14) =     18.13252  eV     1   --> B_2  D_4  S_4  
     e( 15 - 15) =     18.48690  eV     1   --> A_1  D_1  S_1  
     e( 16 - 16) =     19.44871  eV     1   --> A_2  D_2  S_2  

 **************************************************************************

 **************************************************************************

                    xk=(   0.50000,   0.00000,   0.00000  )

     Band symmetry, C_2v (mm2)  point group:

     e(  1 -  1) =    -15.75415  eV     1   --> A_1  D_1  S_1  
     e(  2 -  2) =    -10.95951  eV     1   --> B_2  D_4  S_4  
     e(  3 -  3) =     -9.63870  eV     1   --> A_1  D_1  S_1  
     e(  4 -  4) =     -3.31136  eV     1   --> B_1  D_3  S_3  
     e(  5 -  5) =      2.43688  eV     1   --> A_2  D_2  S_2  
     e(  6 -  6) =      8.73437  eV     1   --> A_1  D_1  S_1  
     e(  7 -  7) =      9.88468  eV     1   --> B_1  D_3  S_3  
     e(  8 -  8) =     11.48493  eV     1   --> A_1  D_1  S_1  
     e(  9 -  9) =     12.02913  eV     1   --> A_1  D_1  S_1  
     e( 10 - 10) =     12.67862  eV     1   --> B_2  D_4  S_4  
     e( 11 - 11) =     12.74112  eV     1   --> B_1  D_3  S_3  
     e( 12 - 12) =     17.08724  eV     1   --> B_1  D_3  S_3  
     e( 13 - 13) =     17.50530  eV     1   --> B_2  D_4  S_4  
     e( 14 - 14) =     17.59863  eV     1   --> A_1  D_1  S_1  
     e( 15 - 15) =     18.17541  eV     1   --> A_1  D_1  S_1  
     e( 16 - 16) =     18.64386  eV     1   --> A_2  D_2  S_2  

 **************************************************************************

 **************************************************************************

                    xk=(   0.53333,   0.00000,   0.00000  )

     Band symmetry, C_2v (mm2)  point group:

     e(  1 -  1) =    -15.18823  eV     1   --> A_1  D_1  S_1  
     e(  2 -  2) =    -11.43096  eV     1   --> B_2  D_4  S_4  
     e(  3 -  3) =    -10.10799  eV     1   --> A_1  D_1  S_1  
     e(  4 -  4) =     -2.71187  eV     1   --> B_1  D_3  S_3  
     e(  5 -  5) =      1.77984  eV     1   --> A_2  D_2  S_2  
     e(  6 -  6) =      9.55024  eV     1   --> A_1  D_1  S_1  
     e(  7 -  7) =     10.17820  eV     1   --> B_1  D_3  S_3  
     e(  8 -  8) =     12.21244  eV     1   --> A_1  D_1  S_1  
     e(  9 -  9) =     12.55032  eV     1   --> A_1  D_1  S_1  
     e( 10 - 10) =     12.80004  eV     1   --> B_1  D_3  S_3  
     e( 11 - 11) =     12.80488  eV     1   --> B_2  D_4  S_4  
     e( 12 - 12) =     16.88817  eV     1   --> B_2  D_4  S_4  
     e( 13 - 13) =     16.97847  eV     1   --> A_1  D_1  S_1  
     e( 14 - 14) =     17.57256  eV     1   --> B_1  D_3  S_3  
     e( 15 - 15) =     17.88113  eV     1   --> A_2  D_2  S_2  
     e( 16 - 16) =     18.56052  eV     1   --> A_1  D_1  S_1  

 **************************************************************************

 **************************************************************************

                    xk=(   0.56667,   0.00000,   0.00000  )

     Band symmetry, C_2v (mm2)  point group:

     e(  1 -  1) =    -14.60371  eV     1   --> A_1  D_1  S_1  
     e(  2 -  2) =    -11.87244  eV     1   --> B_2  D_4  S_4  
     e(  3 -  3) =    -10.54200  eV     1   --> A_1  D_1  S_1  
     e(  4 -  4) =     -2.11286  eV     1   --> B_1  D_3  S_3  
     e(  5 -  5) =      1.15858  eV     1   --> A_2  D_2  S_2  
     e(  6 -  6) =     10.21511  eV     1   --> B_1  D_3  S_3  
     e(  7 -  7) =     10.39876  eV     1   --> A_1  D_1  S_1  
     e(  8 -  8) =     12.71528  eV     1   --> A_1  D_1  S_1  
     e(  9 -  9) =     12.87947  eV     1   --> B_2  D_4  S_4  
     e( 10 - 10) =     13.20709  eV     1   --> B_1  D_3  S_3  
     e( 11 - 11) =     13.25112  eV     1   --> A_1  D_1  S_1  
     e( 12 - 12) =     16.33499  eV     1   --> B_2  D_4  S_4  
     e( 13 - 13) =     16.41995  eV     1   --> A_1  D_1  S_1  
     e( 14 - 14) =     17.16418  eV     1   --> A_2  D_2  S_2  
     e( 15 - 15) =     17.81452  eV     1   --> B_1  D_3  S_3  
     e( 16 - 16) =     18.51397  eV     1   --> A_1  D_1  S_1  

 **************************************************************************

 **************************************************************************

                    xk=(   0.60000,   0.00000,   0.00000  )

     Band symmetry, C_2v (mm2)  point group:

     e(  1 -  1) =    -14.01463  eV     1   --> A_1  D_1  S_1  
     e(  2 -  2) =    -12.28336  eV     1   --> B_2  D_4  S_4  
     e(  3 -  3) =    -10.92670  eV     1   --> A_1  D_1  S_1  
     e(  4 -  4) =     -1.52787  eV     1   --> B_1  D_3  S_3  
     e(  5 -  5) =      0.57579  eV     1   --> A_2  D_2  S_2  
     e(  6 -  6) =     10.11104  eV     1   --> B_1  D_3  S_3  
     e(  7 -  7) =     11.25768  eV     1   --> A_1  D_1  S_1  
     e(  8 -  8) =     12.88016  eV     1   --> B_2  D_4  S_4  
     e(  9 -  9) =     12.97699  eV     1   --> A_1  D_1  S_1  
     e( 10 - 10) =     13.86406  eV     1   --> B_1  D_3  S_3  
     e( 11 - 11) =     14.05505  eV     1   --> A_1  D_1  S_1  
     e( 12 - 12) =     15.87269  eV     1   --> B_2  D_4  S_4  
     e( 13 - 13) =     15.99949  eV     1   --> A_1  D_1  S_1  
     e( 14 - 14) =     16.49556  eV     1   --> A_2  D_2  S_2  
     e( 15 - 15) =     17.63535  eV     1   --> B_1  D_3  S_3  
     e( 16 - 16) =     18.07492  eV     1   --> A_1  D_1  S_1  

 **************************************************************************

 **************************************************************************

                    xk=(   0.63333,   0.00000,   0.00000  )

     Band symmetry, C_2v (mm2)  point group:

     e(  1 -  1) =    -13.45389  eV     1   --> A_1  D_1  S_1  
     e(  2 -  2) =    -12.66277  eV     1   --> B_2  D_4  S_4  
     e(  3 -  3) =    -11.23024  eV     1   --> A_1  D_1  S_1  
     e(  4 -  4) =     -0.97319  eV     1   --> B_1  D_3  S_3  
     e(  5 -  5) =      0.03376  eV     1   --> A_2  D_2  S_2  
     e(  6 -  6) =      9.99827  eV     1   --> B_1  D_3  S_3  
     e(  7 -  7) =     12.06614  eV     1   --> A_1  D_1  S_1  
     e(  8 -  8) =     12.78873  eV     1   --> B_2  D_4  S_4  
     e(  9 -  9) =     13.03715  eV     1   --> A_1  D_1  S_1  
     e( 10 - 10) =     14.62501  eV     1   --> B_1  D_3  S_3  
     e( 11 - 11) =     14.78525  eV     1   --> A_1  D_1  S_1  
     e( 12 - 12) =     15.50999  eV     1   --> B_2  D_4  S_4  
     e( 13 - 13) =     15.75242  eV     1   --> A_1  D_1  S_1  
     e( 14 - 14) =     15.87702  eV     1   --> A_2  D_2  S_2  
     e( 15 - 15) =     17.30149  eV     1   --> B_1  D_3  S_3  
     e( 16 - 16) =     17.66338  eV     1   --> A_1  D_1  S_1  

 **************************************************************************

 **************************************************************************

                    xk=(   0.66667,   0.00000,   0.00000  )

     zone border point and non-symmorphic group 
     symmetry decomposition not available

 **************************************************************************

 **************************************************************************

                    xk=(   0.65833,   0.01443,   0.00000  )

     zone border point and non-symmorphic group 
     symmetry decomposition not available

 **************************************************************************

 **************************************************************************

                    xk=(   0.65000,   0.02887,   0.00000  )

     zone border point and non-symmorphic group 
     symmetry decomposition not available

 **************************************************************************

 **************************************************************************

                    xk=(   0.64167,   0.04330,   0.00000  )

     zone border point and non-symmorphic group 
     symmetry decomposition not available

 **************************************************************************

 **************************************************************************

                    xk=(   0.63333,   0.05774,   0.00000  )

     zone border point and non-symmorphic group 
     symmetry decomposition not available

 **************************************************************************

 **************************************************************************

                    xk=(   0.62500,   0.07217,   0.00000  )

     zone border point and non-symmorphic group 
     symmetry decomposition not available

 **************************************************************************

 **************************************************************************

                    xk=(   0.61667,   0.08660,   0.00000  )

     zone border point and non-symmorphic group 
     symmetry decomposition not available

 **************************************************************************

 **************************************************************************

                    xk=(   0.60833,   0.10104,   0.00000  )

     zone border point and non-symmorphic group 
     symmetry decomposition not available

 **************************************************************************

 **************************************************************************

                    xk=(   0.60000,   0.11547,   0.00000  )

     zone border point and non-symmorphic group 
     symmetry decomposition not available

 **************************************************************************

 **************************************************************************

                    xk=(   0.59167,   0.12990,   0.00000  )

     zone border point and non-symmorphic group 
     symmetry decomposition not available

 **************************************************************************

 **************************************************************************

                    xk=(   0.58333,   0.14434,   0.00000  )

     zone border point and non-symmorphic group 
     symmetry decomposition not available

 **************************************************************************

 **************************************************************************

                    xk=(   0.57500,   0.15877,   0.00000  )

     zone border point and non-symmorphic group 
     symmetry decomposition not available

 **************************************************************************

 **************************************************************************

                    xk=(   0.56667,   0.17320,   0.00000  )

     zone border point and non-symmorphic group 
     symmetry decomposition not available

 **************************************************************************

 **************************************************************************

                    xk=(   0.55833,   0.18764,   0.00000  )

     zone border point and non-symmorphic group 
     symmetry decomposition not available

 **************************************************************************

 **************************************************************************

                    xk=(   0.55000,   0.20207,   0.00000  )

     zone border point and non-symmorphic group 
     symmetry decomposition not available

 **************************************************************************

 **************************************************************************

                    xk=(   0.54167,   0.21651,   0.00000  )

     zone border point and non-symmorphic group 
     symmetry decomposition not available

 **************************************************************************

 **************************************************************************

                    xk=(   0.53333,   0.23094,   0.00000  )

     zone border point and non-symmorphic group 
     symmetry decomposition not available

 **************************************************************************

 **************************************************************************

                    xk=(   0.52500,   0.24537,   0.00000  )

     zone border point and non-symmorphic group 
     symmetry decomposition not available

 **************************************************************************

 **************************************************************************

                    xk=(   0.51667,   0.25981,   0.00000  )

     zone border point and non-symmorphic group 
     symmetry decomposition not available

 **************************************************************************

 **************************************************************************

                    xk=(   0.50833,   0.27424,   0.00000  )

     zone border point and non-symmorphic group 
     symmetry decomposition not available

 **************************************************************************

 **************************************************************************

                    xk=(   0.50000,   0.28868,   0.00000  )

     zone border point and non-symmorphic group 
     symmetry decomposition not available

 **************************************************************************

 **************************************************************************

                    xk=(   0.47500,   0.27424,   0.00000  )

     point group C_2v (mm2) 
     there are  4 classes
     the character table:

       E     C2    s_v   s_v' 
A_1    1.00  1.00  1.00  1.00
A_2    1.00  1.00 -1.00 -1.00
B_1    1.00 -1.00  1.00 -1.00
B_2    1.00 -1.00 -1.00  1.00

     the symmetry operations in each class and the name of the first element:

     E        1
                                                                 
     C2       2
                                                                 
     s_v      3
                                                                 
     s_v'     4
                                                                 

     Band symmetry, C_2v (mm2)  point group:

     e(  1 -  1) =    -14.95584  eV     1   --> A_1  D_1  S_1  
     e(  2 -  2) =    -13.59783  eV     1   --> A_1  D_1  S_1  
     e(  3 -  3) =     -6.99323  eV     1   --> B_1  D_3  S_3  
     e(  4 -  4) =     -2.99881  eV     1   --> B_2  D_4  S_4  
     e(  5 -  5) =      1.30272  eV     1   --> B_2  D_4  S_4  
     e(  6 -  6) =      7.32980  eV     1   --> A_1  D_1  S_1  
     e(  7 -  7) =      9.97276  eV     1   --> A_1  D_1  S_1  
     e(  8 -  8) =     11.54134  eV     1   --> A_1  D_1  S_1  
     e(  9 -  9) =     11.54751  eV     1   --> B_2  D_4  S_4  
     e( 10 - 10) =     12.77505  eV     1   --> A_1  D_1  S_1  
     e( 11 - 11) =     13.07469  eV     1   --> B_2  D_4  S_4  
     e( 12 - 12) =     14.33859  eV     1   --> A_1  D_1  S_1  
     e( 13 - 13) =     16.19669  eV     1   --> B_2  D_4  S_4  
     e( 14 - 14) =     18.64903  eV     1   --> B_2  D_4  S_4  
     e( 15 - 15) =     19.12425  eV     1   --> A_1  D_1  S_1  
     e( 16 - 16) =     19.85803  eV     1   --> B_1  D_3  S_3  

 **************************************************************************

 **************************************************************************

                    xk=(   0.45000,   0.25981,   0.00000  )

     Band symmetry, C_2v (mm2)  point group:

     e(  1 -  1) =    -15.42329  eV     1   --> A_1  D_1  S_1  
     e(  2 -  2) =    -13.06413  eV     1   --> A_1  D_1  S_1  
     e(  3 -  3) =     -6.94796  eV     1   --> B_1  D_3  S_3  
     e(  4 -  4) =     -3.27031  eV     1   --> B_2  D_4  S_4  
     e(  5 -  5) =      1.64644  eV     1   --> B_2  D_4  S_4  
     e(  6 -  6) =      7.34821  eV     1   --> A_1  D_1  S_1  
     e(  7 -  7) =      9.23788  eV     1   --> A_1  D_1  S_1  
     e(  8 -  8) =     10.87799  eV     1   --> B_2  D_4  S_4  
     e(  9 -  9) =     12.03756  eV     1   --> A_1  D_1  S_1  
     e( 10 - 10) =     12.36257  eV     1   --> A_1  D_1  S_1  
     e( 11 - 11) =     13.73579  eV     1   --> B_2  D_4  S_4  
     e( 12 - 12) =     15.15554  eV     1   --> A_1  D_1  S_1  
     e( 13 - 13) =     16.02746  eV     1   --> B_2  D_4  S_4  
     e( 14 - 14) =     18.57924  eV     1   --> A_1  D_1  S_1  
     e( 15 - 15) =     18.77779  eV     1   --> B_2  D_4  S_4  
     e( 16 - 16) =     19.52342  eV     1   --> B_1  D_3  S_3  

 **************************************************************************

 **************************************************************************

                    xk=(   0.42500,   0.24537,   0.00000  )

     Band symmetry, C_2v (mm2)  point group:

     e(  1 -  1) =    -15.90138  eV     1   --> A_1  D_1  S_1  
     e(  2 -  2) =    -12.47620  eV     1   --> A_1  D_1  S_1  
     e(  3 -  3) =     -6.87276  eV     1   --> B_1  D_3  S_3  
     e(  4 -  4) =     -3.64806  eV     1   --> B_2  D_4  S_4  
     e(  5 -  5) =      2.14319  eV     1   --> B_2  D_4  S_4  
     e(  6 -  6) =      7.37655  eV     1   --> A_1  D_1  S_1  
     e(  7 -  7) =      8.54060  eV     1   --> A_1  D_1  S_1  
     e(  8 -  8) =     10.21699  eV     1   --> B_2  D_4  S_4  
     e(  9 -  9) =     11.33949  eV     1   --> A_1  D_1  S_1  
     e( 10 - 10) =     13.18906  eV     1   --> A_1  D_1  S_1  
     e( 11 - 11) =     14.29595  eV     1   --> B_2  D_4  S_4  
     e( 12 - 12) =     15.86988  eV     1   --> B_2  D_4  S_4  
     e( 13 - 13) =     15.98086  eV     1   --> A_1  D_1  S_1  
     e( 14 - 14) =     18.00818  eV     1   --> A_1  D_1  S_1  
     e( 15 - 15) =     19.00388  eV     1   --> B_2  D_4  S_4  
     e( 16 - 16) =     19.00570  eV     1   --> B_1  D_3  S_3  

 **************************************************************************

 **************************************************************************

                    xk=(   0.40000,   0.23094,   0.00000  )

     Band symmetry, C_2v (mm2)  point group:

     e(  1 -  1) =    -16.36455  eV     1   --> A_1  D_1  S_1  
     e(  2 -  2) =    -11.86060  eV     1   --> A_1  D_1  S_1  
     e(  3 -  3) =     -6.76826  eV     1   --> B_1  D_3  S_3  
     e(  4 -  4) =     -4.07870  eV     1   --> B_2  D_4  S_4  
     e(  5 -  5) =      2.73768  eV     1   --> B_2  D_4  S_4  
     e(  6 -  6) =      7.40148  eV     1   --> A_1  D_1  S_1  
     e(  7 -  7) =      7.89538  eV     1   --> A_1  D_1  S_1  
     e(  8 -  8) =      9.58132  eV     1   --> B_2  D_4  S_4  
     e(  9 -  9) =     10.67721  eV     1   --> A_1  D_1  S_1  
     e( 10 - 10) =     14.00224  eV     1   --> A_1  D_1  S_1  
     e( 11 - 11) =     14.51133  eV     1   --> B_2  D_4  S_4  
     e( 12 - 12) =     15.98259  eV     1   --> B_2  D_4  S_4  
     e( 13 - 13) =     16.79047  eV     1   --> A_1  D_1  S_1  
     e( 14 - 14) =     17.44101  eV     1   --> A_1  D_1  S_1  
     e( 15 - 15) =     18.34640  eV     1   --> B_1  D_3  S_3  
     e( 16 - 16) =     19.33696  eV     1   --> B_2  D_4  S_4  

 **************************************************************************

 **************************************************************************

                    xk=(   0.37500,   0.21651,   0.00000  )

     Band symmetry, C_2v (mm2)  point group:

     e(  1 -  1) =    -16.80600  eV     1   --> A_1  D_1  S_1  
     e(  2 -  2) =    -11.22542  eV     1   --> A_1  D_1  S_1  
     e(  3 -  3) =     -6.63521  eV     1   --> B_1  D_3  S_3  
     e(  4 -  4) =     -4.52849  eV     1   --> B_2  D_4  S_4  
     e(  5 -  5) =      3.39345  eV     1   --> B_2  D_4  S_4  
     e(  6 -  6) =      7.18152  eV     1   --> A_1  D_1  S_1  
     e(  7 -  7) =      7.54341  eV     1   --> A_1  D_1  S_1  
     e(  8 -  8) =      8.97691  eV     1   --> B_2  D_4  S_4  
     e(  9 -  9) =     10.05363  eV     1   --> A_1  D_1  S_1  
     e( 10 - 10) =     14.31745  eV     1   --> B_2  D_4  S_4  
     e( 11 - 11) =     14.75401  eV     1   --> A_1  D_1  S_1  
     e( 12 - 12) =     16.44568  eV     1   --> B_2  D_4  S_4  
     e( 13 - 13) =     16.87719  eV     1   --> A_1  D_1  S_1  
     e( 14 - 14) =     17.56713  eV     1   --> A_1  D_1  S_1  
     e( 15 - 15) =     17.58703  eV     1   --> B_1  D_3  S_3  
     e( 16 - 16) =     19.78261  eV     1   --> B_2  D_4  S_4  

 **************************************************************************

 **************************************************************************

                    xk=(   0.35000,   0.20207,   0.00000  )

     Band symmetry, C_2v (mm2)  point group:

     e(  1 -  1) =    -17.22320  eV     1   --> A_1  D_1  S_1  
     e(  2 -  2) =    -10.57517  eV     1   --> A_1  D_1  S_1  
     e(  3 -  3) =     -6.47487  eV     1   --> B_1  D_3  S_3  
     e(  4 -  4) =     -4.97738  eV     1   --> B_2  D_4  S_4  
     e(  5 -  5) =      4.08707  eV     1   --> B_2  D_4  S_4  
     e(  6 -  6) =      6.62620  eV     1   --> A_1  D_1  S_1  
     e(  7 -  7) =      7.57392  eV     1   --> A_1  D_1  S_1  
     e(  8 -  8) =      8.40735  eV     1   --> B_2  D_4  S_4  
     e(  9 -  9) =      9.47033  eV     1   --> A_1  D_1  S_1  
     e( 10 - 10) =     13.95812  eV     1   --> B_2  D_4  S_4  
     e( 11 - 11) =     15.35947  eV     1   --> A_1  D_1  S_1  
     e( 12 - 12) =     16.35074  eV     1   --> A_1  D_1  S_1  
     e( 13 - 13) =     16.76186  eV     1   --> B_1  D_3  S_3  
     e( 14 - 14) =     17.02688  eV     1   --> B_2  D_4  S_4  
     e( 15 - 15) =     18.27051  eV     1   --> A_1  D_1  S_1  
     e( 16 - 16) =     20.33518  eV     1   --> B_2  D_4  S_4  

 **************************************************************************

 **************************************************************************

                    xk=(   0.32500,   0.18764,   0.00000  )

     Band symmetry, C_2v (mm2)  point group:

     e(  1 -  1) =    -17.61462  eV     1   --> A_1  D_1  S_1  
     e(  2 -  2) =     -9.91394  eV     1   --> A_1  D_1  S_1  
     e(  3 -  3) =     -6.28866  eV     1   --> B_1  D_3  S_3  
     e(  4 -  4) =     -5.41392  eV     1   --> B_2  D_4  S_4  
     e(  5 -  5) =      4.80011  eV     1   --> B_2  D_4  S_4  
     e(  6 -  6) =      6.08286  eV     1   --> A_1  D_1  S_1  
     e(  7 -  7) =      7.63588  eV     1   --> A_1  D_1  S_1  
     e(  8 -  8) =      7.87581  eV     1   --> B_2  D_4  S_4  
     e(  9 -  9) =      8.92997  eV     1   --> A_1  D_1  S_1  
     e( 10 - 10) =     13.55529  eV     1   --> B_2  D_4  S_4  
     e( 11 - 11) =     15.68640  eV     1   --> A_1  D_1  S_1  
     e( 12 - 12) =     15.87925  eV     1   --> A_1  D_1  S_1  
     e( 13 - 13) =     15.89840  eV     1   --> B_1  D_3  S_3  
     e( 14 - 14) =     17.61639  eV     1   --> B_2  D_4  S_4  
     e( 15 - 15) =     18.97708  eV     1   --> A_1  D_1  S_1  
     e( 16 - 16) =     20.96481  eV     1   --> B_2  D_4  S_4  

 **************************************************************************

 **************************************************************************

                    xk=(   0.30000,   0.17320,   0.00000  )

     Band symmetry, C_2v (mm2)  point group:

     e(  1 -  1) =    -17.97921  eV     1   --> A_1  D_1  S_1  
     e(  2 -  2) =     -9.24574  eV     1   --> A_1  D_1  S_1  
     e(  3 -  3) =     -6.07846  eV     1   --> B_1  D_3  S_3  
     e(  4 -  4) =     -5.83022  eV     1   --> B_2  D_4  S_4  
     e(  5 -  5) =      5.51643  eV     1   --> B_2  D_4  S_4  
     e(  6 -  6) =      5.57534  eV     1   --> A_1  D_1  S_1  
     e(  7 -  7) =      7.38823  eV     1   --> B_2  D_4  S_4  
     e(  8 -  8) =      7.69597  eV     1   --> A_1  D_1  S_1  
     e(  9 -  9) =      8.44097  eV     1   --> A_1  D_1  S_1  
     e( 10 - 10) =     13.14924  eV     1   --> B_2  D_4  S_4  
     e( 11 - 11) =     15.01847  eV     1   --> B_1  D_3  S_3  
     e( 12 - 12) =     15.35539  eV     1   --> A_1  D_1  S_1  
     e( 13 - 13) =     15.80978  eV     1   --> A_1  D_1  S_1  
     e( 14 - 14) =     18.18794  eV     1   --> B_2  D_4  S_4  
     e( 15 - 15) =     19.78694  eV     1   --> A_1  D_1  S_1  
     e( 16 - 16) =     21.60035  eV     1   --> B_2  D_4  S_4  

 **************************************************************************

 **************************************************************************

                    xk=(   0.27500,   0.15877,   0.00000  )

     Band symmetry, C_2v (mm2)  point group:

     e(  1 -  1) =    -18.31627  eV     1   --> A_1  D_1  S_1  
     e(  2 -  2) =     -8.57528  eV     1   --> A_1  D_1  S_1  
     e(  3 -  3) =     -6.22171  eV     1   --> B_2  D_4  S_4  
     e(  4 -  4) =     -5.84673  eV     1   --> B_1  D_3  S_3  
     e(  5 -  5) =      5.10664  eV     1   --> A_1  D_1  S_1  
     e(  6 -  6) =      6.19368  eV     1   --> B_2  D_4  S_4  
     e(  7 -  7) =      6.97681  eV     1   --> B_2  D_4  S_4  
     e(  8 -  8) =      7.69348  eV     1   --> A_1  D_1  S_1  
     e(  9 -  9) =      8.05791  eV     1   --> A_1  D_1  S_1  
     e( 10 - 10) =     12.75681  eV     1   --> B_2  D_4  S_4  
     e( 11 - 11) =     14.13788  eV     1   --> B_1  D_3  S_3  
     e( 12 - 12) =     14.92201  eV     1   --> A_1  D_1  S_1  
     e( 13 - 13) =     15.65596  eV     1   --> A_1  D_1  S_1  
     e( 14 - 14) =     18.73376  eV     1   --> B_2  D_4  S_4  
     e( 15 - 15) =     20.72176  eV     1   --> A_1  D_1  S_1  
     e( 16 - 16) =     22.12048  eV     1   --> B_2  D_4  S_4  

 **************************************************************************

 **************************************************************************

                    xk=(   0.25000,   0.14434,   0.00000  )

     Band symmetry, C_2v (mm2)  point group:

     e(  1 -  1) =    -18.62547  eV     1   --> A_1  D_1  S_1  
     e(  2 -  2) =     -7.90777  eV     1   --> A_1  D_1  S_1  
     e(  3 -  3) =     -6.58523  eV     1   --> B_2  D_4  S_4  
     e(  4 -  4) =     -5.59649  eV     1   --> B_1  D_3  S_3  
     e(  5 -  5) =      4.67765  eV     1   --> A_1  D_1  S_1  
     e(  6 -  6) =      6.37823  eV     1   --> B_2  D_4  S_4  
     e(  7 -  7) =      7.08591  eV     1   --> B_2  D_4  S_4  
     e(  8 -  8) =      7.43661  eV     1   --> A_1  D_1  S_1  
     e(  9 -  9) =      7.96847  eV     1   --> A_1  D_1  S_1  
     e( 10 - 10) =     12.38672  eV     1   --> B_2  D_4  S_4  
     e( 11 - 11) =     13.27330  eV     1   --> B_1  D_3  S_3  
     e( 12 - 12) =     14.51960  eV     1   --> A_1  D_1  S_1  
     e( 13 - 13) =     15.37814  eV     1   --> A_1  D_1  S_1  
     e( 14 - 14) =     19.23988  eV     1   --> B_2  D_4  S_4  
     e( 15 - 15) =     21.73761  eV     1   --> A_1  D_1  S_1  
     e( 16 - 16) =     22.44828  eV     1   --> B_2  D_4  S_4  

 **************************************************************************

 **************************************************************************

                    xk=(   0.22500,   0.12990,   0.00000  )

     Band symmetry, C_2v (mm2)  point group:

     e(  1 -  1) =    -18.90622  eV     1   --> A_1  D_1  S_1  
     e(  2 -  2) =     -7.24975  eV     1   --> A_1  D_1  S_1  
     e(  3 -  3) =     -6.91836  eV     1   --> B_2  D_4  S_4  
     e(  4 -  4) =     -5.33172  eV     1   --> B_1  D_3  S_3  
     e(  5 -  5) =      4.28894  eV     1   --> A_1  D_1  S_1  
     e(  6 -  6) =      6.05235  eV     1   --> B_2  D_4  S_4  
     e(  7 -  7) =      7.08035  eV     1   --> A_1  D_1  S_1  
     e(  8 -  8) =      7.72411  eV     1   --> B_2  D_4  S_4  
     e(  9 -  9) =      8.01274  eV     1   --> A_1  D_1  S_1  
     e( 10 - 10) =     12.04425  eV     1   --> B_2  D_4  S_4  
     e( 11 - 11) =     12.43584  eV     1   --> B_1  D_3  S_3  
     e( 12 - 12) =     14.15264  eV     1   --> A_1  D_1  S_1  
     e( 13 - 13) =     15.03952  eV     1   --> A_1  D_1  S_1  
     e( 14 - 14) =     19.67333  eV     1   --> B_2  D_4  S_4  
     e( 15 - 15) =     22.68399  eV     1   --> B_2  D_4  S_4  
     e( 16 - 16) =     22.74523  eV     1   --> A_1  D_1  S_1  

 **************************************************************************

 **************************************************************************

                    xk=(   0.20000,   0.11547,   0.00000  )

     Band symmetry, C_2v (mm2)  point group:

     e(  1 -  1) =    -19.15824  eV     1   --> A_1  D_1  S_1  
     e(  2 -  2) =     -7.21938  eV     1   --> B_2  D_4  S_4  
     e(  3 -  3) =     -6.60868  eV     1   --> A_1  D_1  S_1  
     e(  4 -  4) =     -5.05723  eV     1   --> B_1  D_3  S_3  
     e(  5 -  5) =      3.94077  eV     1   --> A_1  D_1  S_1  
     e(  6 -  6) =      5.72103  eV     1   --> B_2  D_4  S_4  
     e(  7 -  7) =      6.74403  eV     1   --> A_1  D_1  S_1  
     e(  8 -  8) =      8.06713  eV     1   --> A_1  D_1  S_1  
     e(  9 -  9) =      8.37674  eV     1   --> B_2  D_4  S_4  
     e( 10 - 10) =     11.63722  eV     1   --> B_1  D_3  S_3  
     e( 11 - 11) =     11.73276  eV     1   --> B_2  D_4  S_4  
     e( 12 - 12) =     13.82218  eV     1   --> A_1  D_1  S_1  
     e( 13 - 13) =     14.68206  eV     1   --> A_1  D_1  S_1  
     e( 14 - 14) =     19.98797  eV     1   --> B_2  D_4  S_4  
     e( 15 - 15) =     22.99078  eV     1   --> B_2  D_4  S_4  
     e( 16 - 16) =     23.46258  eV     1   --> A_1  D_1  S_1  

 **************************************************************************

 **************************************************************************

                    xk=(   0.17500,   0.10104,   0.00000  )

     Band symmetry, C_2v (mm2)  point group:

     e(  1 -  1) =    -19.38112  eV     1   --> A_1  D_1  S_1  
     e(  2 -  2) =     -7.48711  eV     1   --> B_2  D_4  S_4  
     e(  3 -  3) =     -5.99376  eV     1   --> A_1  D_1  S_1  
     e(  4 -  4) =     -4.77895  eV     1   --> B_1  D_3  S_3  
     e(  5 -  5) =      3.63333  eV     1   --> A_1  D_1  S_1  
     e(  6 -  6) =      5.42204  eV     1   --> B_2  D_4  S_4  
     e(  7 -  7) =      6.44306  eV     1   --> A_1  D_1  S_1  
     e(  8 -  8) =      8.11149  eV     1   --> A_1  D_1  S_1  
     e(  9 -  9) =      8.99619  eV     1   --> B_2  D_4  S_4  
     e( 10 - 10) =     10.88803  eV     1   --> B_1  D_3  S_3  
     e( 11 - 11) =     11.45452  eV     1   --> B_2  D_4  S_4  
     e( 12 - 12) =     13.52888  eV     1   --> A_1  D_1  S_1  
     e( 13 - 13) =     14.33327  eV     1   --> A_1  D_1  S_1  
     e( 14 - 14) =     20.15889  eV     1   --> B_2  D_4  S_4  
     e( 15 - 15) =     23.46350  eV     1   --> B_2  D_4  S_4  
     e( 16 - 16) =     23.56415  eV     1   --> A_1  D_1  S_1  

 **************************************************************************

 **************************************************************************

                    xk=(   0.15000,   0.08660,   0.00000  )

     Band symmetry, C_2v (mm2)  point group:

     e(  1 -  1) =    -19.57485  eV     1   --> A_1  D_1  S_1  
     e(  2 -  2) =     -7.72064  eV     1   --> B_2  D_4  S_4  
     e(  3 -  3) =     -5.41622  eV     1   --> A_1  D_1  S_1  
     e(  4 -  4) =     -4.50450  eV     1   --> B_1  D_3  S_3  
     e(  5 -  5) =      3.36670  eV     1   --> A_1  D_1  S_1  
     e(  6 -  6) =      5.16066  eV     1   --> B_2  D_4  S_4  
     e(  7 -  7) =      6.18073  eV     1   --> A_1  D_1  S_1  
     e(  8 -  8) =      8.13790  eV     1   --> A_1  D_1  S_1  
     e(  9 -  9) =      9.56710  eV     1   --> B_2  D_4  S_4  
     e( 10 - 10) =     10.19917  eV     1   --> B_1  D_3  S_3  
     e( 11 - 11) =     11.21114  eV     1   --> B_2  D_4  S_4  
     e( 12 - 12) =     13.27286  eV     1   --> A_1  D_1  S_1  
     e( 13 - 13) =     14.01279  eV     1   --> A_1  D_1  S_1  
     e( 14 - 14) =     20.20993  eV     1   --> B_2  D_4  S_4  
     e( 15 - 15) =     23.40698  eV     1   --> A_1  D_1  S_1  
     e( 16 - 16) =     24.00798  eV     1   --> A_1  D_1  S_1  

 **************************************************************************

 **************************************************************************

                    xk=(   0.12500,   0.07217,   0.00000  )

     Band symmetry, C_2v (mm2)  point group:

     e(  1 -  1) =    -19.73903  eV     1   --> A_1  D_1  S_1  
     e(  2 -  2) =     -7.91926  eV     1   --> B_2  D_4  S_4  
     e(  3 -  3) =     -4.88843  eV     1   --> A_1  D_1  S_1  
     e(  4 -  4) =     -4.24302  eV     1   --> B_1  D_3  S_3  
     e(  5 -  5) =      3.14105  eV     1   --> A_1  D_1  S_1  
     e(  6 -  6) =      4.93847  eV     1   --> B_2  D_4  S_4  
     e(  7 -  7) =      5.95826  eV     1   --> A_1  D_1  S_1  
     e(  8 -  8) =      8.14343  eV     1   --> A_1  D_1  S_1  
     e(  9 -  9) =      9.58305  eV     1   --> B_1  D_3  S_3  
     e( 10 - 10) =     10.07671  eV     1   --> B_2  D_4  S_4  
     e( 11 - 11) =     11.00379  eV     1   --> B_2  D_4  S_4  
     e( 12 - 12) =     13.05452  eV     1   --> A_1  D_1  S_1  
     e( 13 - 13) =     13.73433  eV     1   --> A_1  D_1  S_1  
     e( 14 - 14) =     20.18894  eV     1   --> B_2  D_4  S_4  
     e( 15 - 15) =     23.16489  eV     1   --> A_1  D_1  S_1  
     e( 16 - 16) =     23.69587  eV     1   --> A_1  D_1  S_1  

 **************************************************************************

 **************************************************************************

                    xk=(   0.10000,   0.05773,   0.00000  )

     Band symmetry, C_2v (mm2)  point group:

     e(  1 -  1) =    -19.87354  eV     1   --> A_1  D_1  S_1  
     e(  2 -  2) =     -8.08239  eV     1   --> B_2  D_4  S_4  
     e(  3 -  3) =     -4.42467  eV     1   --> A_1  D_1  S_1  
     e(  4 -  4) =     -4.00478  eV     1   --> B_1  D_3  S_3  
     e(  5 -  5) =      2.95642  eV     1   --> A_1  D_1  S_1  
     e(  6 -  6) =      4.75617  eV     1   --> B_2  D_4  S_4  
     e(  7 -  7) =      5.77611  eV     1   --> A_1  D_1  S_1  
     e(  8 -  8) =      8.12933  eV     1   --> A_1  D_1  S_1  
     e(  9 -  9) =      9.05210  eV     1   --> B_1  D_3  S_3  
     e( 10 - 10) =     10.51392  eV     1   --> B_2  D_4  S_4  
     e( 11 - 11) =     10.83368  eV     1   --> B_2  D_4  S_4  
     e( 12 - 12) =     12.87423  eV     1   --> A_1  D_1  S_1  
     e( 13 - 13) =     13.50697  eV     1   --> A_1  D_1  S_1  
     e( 14 - 14) =     20.13601  eV     1   --> B_2  D_4  S_4  
     e( 15 - 15) =     22.87232  eV     1   --> A_1  D_1  S_1  
     e( 16 - 16) =     23.46666  eV     1   --> A_1  D_1  S_1  

 **************************************************************************

 **************************************************************************

                    xk=(   0.07500,   0.04330,   0.00000  )

     Band symmetry, C_2v (mm2)  point group:

     e(  1 -  1) =    -19.97834  eV     1   --> A_1  D_1  S_1  
     e(  2 -  2) =     -8.20971  eV     1   --> B_2  D_4  S_4  
     e(  3 -  3) =     -4.04132  eV     1   --> A_1  D_1  S_1  
     e(  4 -  4) =     -3.80182  eV     1   --> B_1  D_3  S_3  
     e(  5 -  5) =      2.81282  eV     1   --> A_1  D_1  S_1  
     e(  6 -  6) =      4.61412  eV     1   --> B_2  D_4  S_4  
     e(  7 -  7) =      5.63442  eV     1   --> A_1  D_1  S_1  
     e(  8 -  8) =      8.10068  eV     1   --> A_1  D_1  S_1  
     e(  9 -  9) =      8.61909  eV     1   --> B_1  D_3  S_3  
     e( 10 - 10) =     10.69785  eV     1   --> B_2  D_4  S_4  
     e( 11 - 11) =     10.87055  eV     1   --> B_2  D_4  S_4  
     e( 12 - 12) =     12.73264  eV     1   --> A_1  D_1  S_1  
     e( 13 - 13) =     13.33400  eV     1   --> A_1  D_1  S_1  
     e( 14 - 14) =     20.07651  eV     1   --> B_2  D_4  S_4  
     e( 15 - 15) =     22.58507  eV     1   --> A_1  D_1  S_1  
     e( 16 - 16) =     23.31366  eV     1   --> A_1  D_1  S_1  

 **************************************************************************

 **************************************************************************

                    xk=(   0.05000,   0.02887,   0.00000  )

     Band symmetry, C_2v (mm2)  point group:

     e(  1 -  1) =    -20.05321  eV     1   --> A_1  D_1  S_1  
     e(  2 -  2) =     -8.30084  eV     1   --> B_2  D_4  S_4  
     e(  3 -  3) =     -3.75308  eV     1   --> A_1  D_1  S_1  
     e(  4 -  4) =     -3.64548  eV     1   --> B_1  D_3  S_3  
     e(  5 -  5) =      2.71028  eV     1   --> A_1  D_1  S_1  
     e(  6 -  6) =      4.51253  eV     1   --> B_2  D_4  S_4  
     e(  7 -  7) =      5.53329  eV     1   --> A_1  D_1  S_1  
     e(  8 -  8) =      8.06849  eV     1   --> A_1  D_1  S_1  
     e(  9 -  9) =      8.29824  eV     1   --> B_1  D_3  S_3  
     e( 10 - 10) =     10.60347  eV     1   --> B_2  D_4  S_4  
     e( 11 - 11) =     11.13055  eV     1   --> B_2  D_4  S_4  
     e( 12 - 12) =     12.63075  eV     1   --> A_1  D_1  S_1  
     e( 13 - 13) =     13.21441  eV     1   --> A_1  D_1  S_1  
     e( 14 - 14) =     20.02567  eV     1   --> B_2  D_4  S_4  
     e( 15 - 15) =     22.35371  eV     1   --> A_1  D_1  S_1  
     e( 16 - 16) =     23.21391  eV     1   --> A_1  D_1  S_1  

 **************************************************************************

 **************************************************************************

                    xk=(   0.02500,   0.01443,   0.00000  )

     Band symmetry, C_2v (mm2)  point group:

     e(  1 -  1) =    -20.09818  eV     1   --> A_1  D_1  S_1  
     e(  2 -  2) =     -8.35549  eV     1   --> B_2  D_4  S_4  
     e(  3 -  3) =     -3.57383  eV     1   --> A_1  D_1  S_1  
     e(  4 -  4) =     -3.54671  eV     1   --> B_1  D_3  S_3  
     e(  5 -  5) =      2.64878  eV     1   --> A_1  D_1  S_1  
     e(  6 -  6) =      4.45156  eV     1   --> B_2  D_4  S_4  
     e(  7 -  7) =      5.47266  eV     1   --> A_1  D_1  S_1  
     e(  8 -  8) =      8.04312  eV     1   --> A_1  D_1  S_1  
     e(  9 -  9) =      8.10042  eV     1   --> B_1  D_3  S_3  
     e( 10 - 10) =     10.54627  eV     1   --> B_2  D_4  S_4  
     e( 11 - 11) =     11.29064  eV     1   --> B_2  D_4  S_4  
     e( 12 - 12) =     12.56933  eV     1   --> A_1  D_1  S_1  
     e( 13 - 13) =     13.14501  eV     1   --> A_1  D_1  S_1  
     e( 14 - 14) =     19.99224  eV     1   --> B_2  D_4  S_4  
     e( 15 - 15) =     22.20621  eV     1   --> A_1  D_1  S_1  
     e( 16 - 16) =     23.15659  eV     1   --> A_1  D_1  S_1  

 **************************************************************************

 **************************************************************************

                    xk=(   0.00000,   0.00000,   0.00000  )

     point group D_6h(6/mmm)
     there are 12 classes
     the character table:

       E     2C6   2C3   C2    3C2'  3C2'' i     2S3   2S6   s_h   3s_d  3s_v 
A_1g   1.00  1.00  1.00  1.00  1.00  1.00  1.00  1.00  1.00  1.00  1.00  1.00
A_2g   1.00  1.00  1.00  1.00 -1.00 -1.00  1.00  1.00  1.00  1.00 -1.00 -1.00
B_1g   1.00 -1.00  1.00 -1.00  1.00 -1.00  1.00 -1.00  1.00 -1.00  1.00 -1.00
B_2g   1.00 -1.00  1.00 -1.00 -1.00  1.00  1.00 -1.00  1.00 -1.00 -1.00  1.00
E_1g   2.00  1.00 -1.00 -2.00  0.00  0.00  2.00  1.00 -1.00 -2.00  0.00  0.00
E_2g   2.00 -1.00 -1.00  2.00  0.00  0.00  2.00 -1.00 -1.00  2.00  0.00  0.00
A_1u   1.00  1.00  1.00  1.00  1.00  1.00 -1.00 -1.00 -1.00 -1.00 -1.00 -1.00
A_2u   1.00  1.00  1.00  1.00 -1.00 -1.00 -1.00 -1.00 -1.00 -1.00  1.00  1.00
B_1u   1.00 -1.00  1.00 -1.00  1.00 -1.00 -1.00  1.00 -1.00  1.00 -1.00  1.00
B_2u   1.00 -1.00  1.00 -1.00 -1.00  1.00 -1.00  1.00 -1.00  1.00  1.00 -1.00
E_1u   2.00  1.00 -1.00 -2.00  0.00  0.00 -2.00 -1.00  1.00  2.00  0.00  0.00
E_2u   2.00 -1.00 -1.00  2.00  0.00  0.00 -2.00  1.00  1.00 -2.00  0.00  0.00

     the symmetry operations in each class and the name of the first element:

     E        1
                                                                 
     2C6      5    6
                                                                 
     2C3      7    8
                                                                 
     C2       2
                                                                 
     3C2'     4   12   11
                                                                 
     3C2''    3    9   10
                                                                 
     i       13
                                                                 
     2S3     17   18
                                                                 
     2S6     19   20
                                                                 
     s_h     14
                                                                 
     3s_d    16   24   23
                                                                 
     3s_v    15   21   22
                                                                 

     Band symmetry, D_6h(6/mmm) point group:

     e(  1 -  1) =    -20.11322  eV     1   --> A_1g           
     e(  2 -  2) =     -8.37378  eV     1   --> A_2u           
     e(  3 -  4) =     -3.51304  eV     2   --> E_2g           
     e(  5 -  5) =      2.62827  eV     1   --> A_1g           
     e(  6 -  6) =      4.43121  eV     1   --> A_2u           
     e(  7 -  7) =      5.45244  eV     1   --> A_1g           
     e(  8 -  9) =      8.03333  eV     2   --> E_1u           
     e( 10 - 10) =     10.52714  eV     1   --> A_2u           
     e( 11 - 11) =     11.34465  eV     1   --> B_1g           
     e( 12 - 12) =     12.54875  eV     1   --> A_1g           
     e( 13 - 13) =     13.12233  eV     1   --> B_2u           
     e( 14 - 14) =     19.98058  eV     1   --> A_2u           
     e( 15 - 15) =     22.15551  eV     1   --> A_1g           
     e( 16 - 16) =     23.13767  eV     1   --> A_1g           

 **************************************************************************

     BANDS        :      5.27s CPU      5.42s WALL


   This run was terminated on:  15:20:11  16Nov2022            

=------------------------------------------------------------------------------=
   JOB DONE.
=------------------------------------------------------------------------------=
