
     Program BANDS v.6.4.1 starts on 16Nov2022 at 14:39:41 

     This program is part of the open-source Quantum ESPRESSO suite
     for quantum simulation of materials; please cite
         "P. Giannozzi et al., J. Phys.:Condens. Matter 21 395502 (2009);
         "P. Giannozzi et al., J. Phys.:Condens. Matter 29 465901 (2017);
          URL http://www.quantum-espresso.org", 
     in publications or presentations arising from this work. More details at
     http://www.quantum-espresso.org/quote

     Parallel version (MPI), running on     1 processors

     MPI processes distributed on     1 nodes

     Reading data from directory:
     ./work/graphene.save/

     IMPORTANT: XC functional enforced from input :
     Exchange-correlation      = PZ ( 1  1  0  0 0 0)
     Any further DFT definition will be discarded
     Please, verify this is what you really want


     G-vector sticks info
     --------------------
     sticks:   dense  smooth     PW     G-vecs:    dense   smooth      PW
     Sum         211     169     61                10409     7409    1501


     negative rho (up, down):  1.646E-04 0.000E+00
     high-symmetry point:  0.0000 0.0000 0.0000   x coordinate   0.0000
     high-symmetry point:  0.6667 0.0000 0.0000   x coordinate   0.6667
     high-symmetry point:  0.5000 0.2887 0.0000   x coordinate   1.0000
     high-symmetry point:  0.0000 0.0000 0.0000   x coordinate   1.5774

     Plottable bands (eV) written to file graphene.band.gnu
     Bands written to file graphene.band

 **************************************************************************

                    xk=(   0.00000,   0.00000,   0.00000  )

     point group C_2v (mm2) 
     there are  4 classes
     the character table:

       E     C2    s_v   s_v' 
A_1    1.00  1.00  1.00  1.00
A_2    1.00  1.00 -1.00 -1.00
B_1    1.00 -1.00  1.00 -1.00
B_2    1.00 -1.00 -1.00  1.00

     the symmetry operations in each class and the name of the first element:

     E        1
                                                                 
     C2       2
                                                                 
     s_v      3
                                                                 
     s_v'     4
                                                                 

     Band symmetry, C_2v (mm2)  point group:

     e(  1 -  1) =    -20.11302  eV     1   --> A_1  D_1  S_1  
     e(  2 -  2) =     -8.37890  eV     1   --> B_2  D_4  S_4  
     e(  3 -  3) =     -4.35417  eV     1   --> B_1  D_3  S_3  
     e(  4 -  4) =     -2.62430  eV     1   --> A_1  D_1  S_1  
     e(  5 -  5) =      2.62844  eV     1   --> A_1  D_1  S_1  
     e(  6 -  6) =      4.42880  eV     1   --> B_2  D_4  S_4  
     e(  7 -  7) =      5.44944  eV     1   --> A_1  D_1  S_1  
     e(  8 -  8) =      6.92101  eV     1   --> A_1  D_1  S_1  
     e(  9 -  9) =      9.15721  eV     1   --> B_1  D_3  S_3  
     e( 10 - 10) =     10.52194  eV     1   --> B_2  D_4  S_4  
     e( 11 - 11) =     11.37131  eV     1   --> B_2  D_4  S_4  
     e( 12 - 12) =     12.54763  eV     1   --> A_1  D_1  S_1  
     e( 13 - 13) =     13.14173  eV     1   --> A_1  D_1  S_1  
     e( 14 - 14) =     19.96714  eV     1   --> B_2  D_4  S_4  
     e( 15 - 15) =     22.13123  eV     1   --> A_1  D_1  S_1  
     e( 16 - 16) =     23.13607  eV     1   --> A_1  D_1  S_1  

 **************************************************************************

 **************************************************************************

                    xk=(   0.03333,   0.00000,   0.00000  )

     point group C_s (m)    
     there are  2 classes
     the character table:

       E     s    
A'     1.00  1.00
A''    1.00 -1.00

     the symmetry operations in each class and the name of the first element:

     E        1
                                                                 
     s        2
                                                                 

     Band symmetry, C_s (m)     point group:

     e(  1 -  1) =    -20.09316  eV     1   --> A'             
     e(  2 -  2) =     -8.35413  eV     1   --> A''            
     e(  3 -  3) =     -4.42691  eV     1   --> A'             
     e(  4 -  4) =     -2.67482  eV     1   --> A'             
     e(  5 -  5) =      2.65589  eV     1   --> A'             
     e(  6 -  6) =      4.45605  eV     1   --> A''            
     e(  7 -  7) =      5.47666  eV     1   --> A'             
     e(  8 -  8) =      6.99651  eV     1   --> A'             
     e(  9 -  9) =      9.17280  eV     1   --> A'             
     e( 10 - 10) =     10.54782  eV     1   --> A''            
     e( 11 - 11) =     11.29310  eV     1   --> A''            
     e( 12 - 12) =     12.57507  eV     1   --> A'             
     e( 13 - 13) =     13.17823  eV     1   --> A'             
     e( 14 - 14) =     19.98533  eV     1   --> A''            
     e( 15 - 15) =     22.20188  eV     1   --> A'             
     e( 16 - 16) =     23.16117  eV     1   --> A'             

 **************************************************************************

 **************************************************************************

                    xk=(   0.06667,   0.00000,   0.00000  )

     Band symmetry, C_s (m)     point group:

     e(  1 -  1) =    -20.03392  eV     1   --> A'             
     e(  2 -  2) =     -8.27996  eV     1   --> A''            
     e(  3 -  3) =     -4.63894  eV     1   --> A'             
     e(  4 -  4) =     -2.82471  eV     1   --> A'             
     e(  5 -  5) =      2.73812  eV     1   --> A'             
     e(  6 -  6) =      4.53777  eV     1   --> A''            
     e(  7 -  7) =      5.55820  eV     1   --> A'             
     e(  8 -  8) =      7.21229  eV     1   --> A'             
     e(  9 -  9) =      9.21857  eV     1   --> A'             
     e( 10 - 10) =     10.62532  eV     1   --> A''            
     e( 11 - 11) =     11.06288  eV     1   --> A''            
     e( 12 - 12) =     12.65673  eV     1   --> A'             
     e( 13 - 13) =     13.28954  eV     1   --> A'             
     e( 14 - 14) =     20.03778  eV     1   --> A''            
     e( 15 - 15) =     22.40536  eV     1   --> A'             
     e( 16 - 16) =     23.23775  eV     1   --> A'             

 **************************************************************************

 **************************************************************************

                    xk=(   0.10000,   0.00000,   0.00000  )

     Band symmetry, C_s (m)     point group:

     e(  1 -  1) =    -19.93512  eV     1   --> A'             
     e(  2 -  2) =     -8.15660  eV     1   --> A''            
     e(  3 -  3) =     -4.96976  eV     1   --> A'             
     e(  4 -  4) =     -3.06730  eV     1   --> A'             
     e(  5 -  5) =      2.87521  eV     1   --> A'             
     e(  6 -  6) =      4.67385  eV     1   --> A''            
     e(  7 -  7) =      5.69422  eV     1   --> A'             
     e(  8 -  8) =      7.54281  eV     1   --> A'             
     e(  9 -  9) =      9.29824  eV     1   --> A'             
     e( 10 - 10) =     10.69273  eV     1   --> A''            
     e( 11 - 11) =     10.75402  eV     1   --> A''            
     e( 12 - 12) =     12.79203  eV     1   --> A'             
     e( 13 - 13) =     13.48039  eV     1   --> A'             
     e( 14 - 14) =     20.11716  eV     1   --> A''            
     e( 15 - 15) =     22.71461  eV     1   --> A'             
     e( 16 - 16) =     23.37570  eV     1   --> A'             

 **************************************************************************

 **************************************************************************

                    xk=(   0.13333,   0.00000,   0.00000  )

     Band symmetry, C_s (m)     point group:

     e(  1 -  1) =    -19.79705  eV     1   --> A'             
     e(  2 -  2) =     -7.98419  eV     1   --> A''            
     e(  3 -  3) =     -5.39422  eV     1   --> A'             
     e(  4 -  4) =     -3.39342  eV     1   --> A'             
     e(  5 -  5) =      3.06710  eV     1   --> A'             
     e(  6 -  6) =      4.86415  eV     1   --> A''            
     e(  7 -  7) =      5.88476  eV     1   --> A'             
     e(  8 -  8) =      7.95161  eV     1   --> A'             
     e(  9 -  9) =      9.41418  eV     1   --> A'             
     e( 10 - 10) =     10.20092  eV     1   --> A''            
     e( 11 - 11) =     10.93326  eV     1   --> A''            
     e( 12 - 12) =     12.97989  eV     1   --> A'             
     e( 13 - 13) =     13.75829  eV     1   --> A'             
     e( 14 - 14) =     20.20595  eV     1   --> A''            
     e( 15 - 15) =     23.06800  eV     1   --> A'             
     e( 16 - 16) =     23.60592  eV     1   --> A'             

 **************************************************************************

 **************************************************************************

                    xk=(   0.16667,   0.00000,   0.00000  )

     Band symmetry, C_s (m)     point group:

     e(  1 -  1) =    -19.61983  eV     1   --> A'             
     e(  2 -  2) =     -7.76329  eV     1   --> A''            
     e(  3 -  3) =     -5.88654  eV     1   --> A'             
     e(  4 -  4) =     -3.79121  eV     1   --> A'             
     e(  5 -  5) =      3.31377  eV     1   --> A'             
     e(  6 -  6) =      5.10838  eV     1   --> A''            
     e(  7 -  7) =      6.12988  eV     1   --> A'             
     e(  8 -  8) =      8.40091  eV     1   --> A'             
     e(  9 -  9) =      9.56880  eV     1   --> A'             
     e( 10 - 10) =      9.60839  eV     1   --> A''            
     e( 11 - 11) =     11.16178  eV     1   --> A''            
     e( 12 - 12) =     13.21924  eV     1   --> A'             
     e( 13 - 13) =     14.13075  eV     1   --> A'             
     e( 14 - 14) =     20.26120  eV     1   --> A''            
     e( 15 - 15) =     23.37212  eV     1   --> A'             
     e( 16 - 16) =     23.93185  eV     1   --> A''            

 **************************************************************************

 **************************************************************************

                    xk=(   0.20000,   0.00000,   0.00000  )

     Band symmetry, C_s (m)     point group:

     e(  1 -  1) =    -19.40367  eV     1   --> A'             
     e(  2 -  2) =     -7.49449  eV     1   --> A''            
     e(  3 -  3) =     -6.42376  eV     1   --> A'             
     e(  4 -  4) =     -4.24783  eV     1   --> A'             
     e(  5 -  5) =      3.61510  eV     1   --> A'             
     e(  6 -  6) =      5.40615  eV     1   --> A''            
     e(  7 -  7) =      6.42955  eV     1   --> A'             
     e(  8 -  8) =      8.85790  eV     1   --> A'             
     e(  9 -  9) =      8.93859  eV     1   --> A''            
     e( 10 - 10) =      9.76466  eV     1   --> A'             
     e( 11 - 11) =     11.43759  eV     1   --> A''            
     e( 12 - 12) =     13.50911  eV     1   --> A'             
     e( 13 - 13) =     14.60258  eV     1   --> A'             
     e( 14 - 14) =     20.18004  eV     1   --> A''            
     e( 15 - 15) =     23.04251  eV     1   --> A''            
     e( 16 - 16) =     23.60075  eV     1   --> A'             

 **************************************************************************

 **************************************************************************

                    xk=(   0.23333,   0.00000,   0.00000  )

     Band symmetry, C_s (m)     point group:

     e(  1 -  1) =    -19.14895  eV     1   --> A'             
     e(  2 -  2) =     -7.17861  eV     1   --> A''            
     e(  3 -  3) =     -6.98798  eV     1   --> A'             
     e(  4 -  4) =     -4.75034  eV     1   --> A'             
     e(  5 -  5) =      3.97094  eV     1   --> A'             
     e(  6 -  6) =      5.75688  eV     1   --> A''            
     e(  7 -  7) =      6.78367  eV     1   --> A'             
     e(  8 -  8) =      8.21189  eV     1   --> A''            
     e(  9 -  9) =      9.29787  eV     1   --> A'             
     e( 10 - 10) =     10.00198  eV     1   --> A'             
     e( 11 - 11) =     11.75739  eV     1   --> A''            
     e( 12 - 12) =     13.84849  eV     1   --> A'             
     e( 13 - 13) =     15.17046  eV     1   --> A'             
     e( 14 - 14) =     19.79701  eV     1   --> A''            
     e( 15 - 15) =     22.55449  eV     1   --> A''            
     e( 16 - 16) =     23.74214  eV     1   --> A'             

 **************************************************************************

 **************************************************************************

                    xk=(   0.26667,   0.00000,   0.00000  )

     Band symmetry, C_s (m)     point group:

     e(  1 -  1) =    -18.85601  eV     1   --> A'             
     e(  2 -  2) =     -7.56502  eV     1   --> A'             
     e(  3 -  3) =     -6.81675  eV     1   --> A''            
     e(  4 -  4) =     -5.28651  eV     1   --> A'             
     e(  5 -  5) =      4.38111  eV     1   --> A'             
     e(  6 -  6) =      6.15970  eV     1   --> A''            
     e(  7 -  7) =      7.19208  eV     1   --> A'             
     e(  8 -  8) =      7.44811  eV     1   --> A''            
     e(  9 -  9) =      9.70688  eV     1   --> A'             
     e( 10 - 10) =     10.28078  eV     1   --> A'             
     e( 11 - 11) =     12.11540  eV     1   --> A''            
     e( 12 - 12) =     14.23652  eV     1   --> A'             
     e( 13 - 13) =     15.82065  eV     1   --> A'             
     e( 14 - 14) =     19.09783  eV     1   --> A''            
     e( 15 - 15) =     22.48872  eV     1   --> A''            
     e( 16 - 16) =     23.63314  eV     1   --> A'             

 **************************************************************************

 **************************************************************************

                    xk=(   0.30000,   0.00000,   0.00000  )

     Band symmetry, C_s (m)     point group:

     e(  1 -  1) =    -18.52531  eV     1   --> A'             
     e(  2 -  2) =     -8.14368  eV     1   --> A'             
     e(  3 -  3) =     -6.41015  eV     1   --> A''            
     e(  4 -  4) =     -5.84507  eV     1   --> A'             
     e(  5 -  5) =      4.84534  eV     1   --> A'             
     e(  6 -  6) =      6.61330  eV     1   --> A''            
     e(  7 -  7) =      6.66315  eV     1   --> A''            
     e(  8 -  8) =      7.65451  eV     1   --> A'             
     e(  9 -  9) =     10.08152  eV     1   --> A'             
     e( 10 - 10) =     10.60030  eV     1   --> A'             
     e( 11 - 11) =     12.50075  eV     1   --> A''            
     e( 12 - 12) =     14.67193  eV     1   --> A'             
     e( 13 - 13) =     16.52560  eV     1   --> A'             
     e( 14 - 14) =     18.26381  eV     1   --> A''            
     e( 15 - 15) =     22.66517  eV     1   --> A''            
     e( 16 - 16) =     23.03418  eV     1   --> A'             

 **************************************************************************

 **************************************************************************

                    xk=(   0.33333,   0.00000,   0.00000  )

     Band symmetry, C_s (m)     point group:

     e(  1 -  1) =    -18.15739  eV     1   --> A'             
     e(  2 -  2) =     -8.71627  eV     1   --> A'             
     e(  3 -  3) =     -6.41599  eV     1   --> A'             
     e(  4 -  4) =     -5.96044  eV     1   --> A''            
     e(  5 -  5) =      5.36329  eV     1   --> A'             
     e(  6 -  6) =      5.87067  eV     1   --> A''            
     e(  7 -  7) =      7.11566  eV     1   --> A''            
     e(  8 -  8) =      8.17062  eV     1   --> A'             
     e(  9 -  9) =     10.42413  eV     1   --> A'             
     e( 10 - 10) =     10.95682  eV     1   --> A'             
     e( 11 - 11) =     12.89117  eV     1   --> A''            
     e( 12 - 12) =     15.15284  eV     1   --> A'             
     e( 13 - 13) =     17.23736  eV     1   --> A'             
     e( 14 - 14) =     17.44346  eV     1   --> A''            
     e( 15 - 15) =     22.14863  eV     1   --> A'             
     e( 16 - 16) =     22.67097  eV     1   --> A'             

 **************************************************************************

 **************************************************************************

                    xk=(   0.36667,   0.00000,   0.00000  )

     Band symmetry, C_s (m)     point group:

     e(  1 -  1) =    -17.75300  eV     1   --> A'             
     e(  2 -  2) =     -9.27657  eV     1   --> A'             
     e(  3 -  3) =     -6.99058  eV     1   --> A'             
     e(  4 -  4) =     -5.47005  eV     1   --> A''            
     e(  5 -  5) =      5.08168  eV     1   --> A''            
     e(  6 -  6) =      5.93437  eV     1   --> A'             
     e(  7 -  7) =      7.66322  eV     1   --> A''            
     e(  8 -  8) =      8.73973  eV     1   --> A'             
     e(  9 -  9) =     10.73996  eV     1   --> A'             
     e( 10 - 10) =     11.34660  eV     1   --> A'             
     e( 11 - 11) =     13.23688  eV     1   --> A''            
     e( 12 - 12) =     15.67586  eV     1   --> A'             
     e( 13 - 13) =     16.74275  eV     1   --> A''            
     e( 14 - 14) =     17.87517  eV     1   --> A'             
     e( 15 - 15) =     21.20391  eV     1   --> A'             
     e( 16 - 16) =     21.78711  eV     1   --> A'             

 **************************************************************************

 **************************************************************************

                    xk=(   0.40000,   0.00000,   0.00000  )

     Band symmetry, C_s (m)     point group:

     e(  1 -  1) =    -17.31332  eV     1   --> A'             
     e(  2 -  2) =     -9.81984  eV     1   --> A'             
     e(  3 -  3) =     -7.56160  eV     1   --> A'             
     e(  4 -  4) =     -4.94177  eV     1   --> A''            
     e(  5 -  5) =      4.30460  eV     1   --> A''            
     e(  6 -  6) =      6.55777  eV     1   --> A'             
     e(  7 -  7) =      8.24968  eV     1   --> A''            
     e(  8 -  8) =      9.36096  eV     1   --> A'             
     e(  9 -  9) =     11.03456  eV     1   --> A'             
     e( 10 - 10) =     11.76367  eV     1   --> A'             
     e( 11 - 11) =     13.43405  eV     1   --> A''            
     e( 12 - 12) =     16.23497  eV     1   --> A'             
     e( 13 - 13) =     16.29285  eV     1   --> A''            
     e( 14 - 14) =     18.28766  eV     1   --> A'             
     e( 15 - 15) =     20.27758  eV     1   --> A'             
     e( 16 - 16) =     21.10709  eV     1   --> A'             

 **************************************************************************

 **************************************************************************

                    xk=(   0.43333,   0.00000,   0.00000  )

     Band symmetry, C_s (m)     point group:

     e(  1 -  1) =    -16.83912  eV     1   --> A'             
     e(  2 -  2) =    -10.34269  eV     1   --> A'             
     e(  3 -  3) =     -8.12232  eV     1   --> A'             
     e(  4 -  4) =     -4.37911  eV     1   --> A''            
     e(  5 -  5) =      3.54749  eV     1   --> A''            
     e(  6 -  6) =      7.23243  eV     1   --> A'             
     e(  7 -  7) =      8.86260  eV     1   --> A''            
     e(  8 -  8) =     10.03311  eV     1   --> A'             
     e(  9 -  9) =     11.31218  eV     1   --> A'             
     e( 10 - 10) =     12.19730  eV     1   --> A'             
     e( 11 - 11) =     13.36444  eV     1   --> A''            
     e( 12 - 12) =     16.23364  eV     1   --> A''            
     e( 13 - 13) =     16.81916  eV     1   --> A'             
     e( 14 - 14) =     18.27555  eV     1   --> A'             
     e( 15 - 15) =     19.40012  eV     1   --> A'             
     e( 16 - 16) =     20.30103  eV     1   --> A''            

 **************************************************************************

 **************************************************************************

                    xk=(   0.46667,   0.00000,   0.00000  )

     Band symmetry, C_s (m)     point group:

     e(  1 -  1) =    -16.33195  eV     1   --> A'             
     e(  2 -  2) =    -10.84248  eV     1   --> A'             
     e(  3 -  3) =     -8.66733  eV     1   --> A'             
     e(  4 -  4) =     -3.78683  eV     1   --> A''            
     e(  5 -  5) =      2.81627  eV     1   --> A''            
     e(  6 -  6) =      7.95654  eV     1   --> A'             
     e(  7 -  7) =      9.47424  eV     1   --> A''            
     e(  8 -  8) =     10.75411  eV     1   --> A'             
     e(  9 -  9) =     11.57415  eV     1   --> A'             
     e( 10 - 10) =     12.63245  eV     1   --> A'             
     e( 11 - 11) =     13.08449  eV     1   --> A''            
     e( 12 - 12) =     16.53521  eV     1   --> A''            
     e( 13 - 13) =     17.40119  eV     1   --> A'             
     e( 14 - 14) =     17.86408  eV     1   --> A'             
     e( 15 - 15) =     18.59580  eV     1   --> A'             
     e( 16 - 16) =     19.45079  eV     1   --> A''            

 **************************************************************************

 **************************************************************************

                    xk=(   0.50000,   0.00000,   0.00000  )

     Band symmetry, C_s (m)     point group:

     e(  1 -  1) =    -15.79370  eV     1   --> A'             
     e(  2 -  2) =    -11.31704  eV     1   --> A'             
     e(  3 -  3) =     -9.19179  eV     1   --> A'             
     e(  4 -  4) =     -3.17092  eV     1   --> A''            
     e(  5 -  5) =      2.11526  eV     1   --> A''            
     e(  6 -  6) =      8.72715  eV     1   --> A'             
     e(  7 -  7) =     10.01775  eV     1   --> A''            
     e(  8 -  8) =     11.52050  eV     1   --> A'             
     e(  9 -  9) =     11.81864  eV     1   --> A'             
     e( 10 - 10) =     12.81140  eV     1   --> A''            
     e( 11 - 11) =     13.04341  eV     1   --> A'             
     e( 12 - 12) =     17.03195  eV     1   --> A''            
     e( 13 - 13) =     17.28378  eV     1   --> A'             
     e( 14 - 14) =     17.73153  eV     1   --> A'             
     e( 15 - 15) =     18.08697  eV     1   --> A'             
     e( 16 - 16) =     18.63915  eV     1   --> A''            

 **************************************************************************

 **************************************************************************

                    xk=(   0.53333,   0.00000,   0.00000  )

     Band symmetry, C_s (m)     point group:

     e(  1 -  1) =    -15.22721  eV     1   --> A'             
     e(  2 -  2) =    -11.76486  eV     1   --> A'             
     e(  3 -  3) =     -9.69122  eV     1   --> A'             
     e(  4 -  4) =     -2.53934  eV     1   --> A''            
     e(  5 -  5) =      1.44832  eV     1   --> A''            
     e(  6 -  6) =      9.53889  eV     1   --> A'             
     e(  7 -  7) =     10.35540  eV     1   --> A''            
     e(  8 -  8) =     12.03887  eV     1   --> A'             
     e(  9 -  9) =     12.32581  eV     1   --> A'             
     e( 10 - 10) =     12.78583  eV     1   --> A''            
     e( 11 - 11) =     13.38696  eV     1   --> A'             
     e( 12 - 12) =     16.68056  eV     1   --> A'             
     e( 13 - 13) =     17.18859  eV     1   --> A'             
     e( 14 - 14) =     17.56191  eV     1   --> A''            
     e( 15 - 15) =     17.87111  eV     1   --> A''            
     e( 16 - 16) =     18.40997  eV     1   --> A'             

 **************************************************************************

 **************************************************************************

                    xk=(   0.56667,   0.00000,   0.00000  )

     Band symmetry, C_s (m)     point group:

     e(  1 -  1) =    -14.63615  eV     1   --> A'             
     e(  2 -  2) =    -12.18452  eV     1   --> A'             
     e(  3 -  3) =    -10.16065  eV     1   --> A'             
     e(  4 -  4) =     -1.90220  eV     1   --> A''            
     e(  5 -  5) =      0.81854  eV     1   --> A''            
     e(  6 -  6) =     10.38140  eV     1   --> A'             
     e(  7 -  7) =     10.38831  eV     1   --> A''            
     e(  8 -  8) =     12.22203  eV     1   --> A'             
     e(  9 -  9) =     13.15459  eV     1   --> A''            
     e( 10 - 10) =     13.15694  eV     1   --> A'             
     e( 11 - 11) =     13.59942  eV     1   --> A'             
     e( 12 - 12) =     16.11917  eV     1   --> A'             
     e( 13 - 13) =     16.70282  eV     1   --> A'             
     e( 14 - 14) =     17.14998  eV     1   --> A''            
     e( 15 - 15) =     17.86814  eV     1   --> A''            
     e( 16 - 16) =     18.45786  eV     1   --> A'             

 **************************************************************************

 **************************************************************************

                    xk=(   0.60000,   0.00000,   0.00000  )

     Band symmetry, C_s (m)     point group:

     e(  1 -  1) =    -14.02732  eV     1   --> A'             
     e(  2 -  2) =    -12.57543  eV     1   --> A'             
     e(  3 -  3) =    -10.59353  eV     1   --> A'             
     e(  4 -  4) =     -1.27245  eV     1   --> A''            
     e(  5 -  5) =      0.22839  eV     1   --> A''            
     e(  6 -  6) =     10.23832  eV     1   --> A''            
     e(  7 -  7) =     11.23144  eV     1   --> A'             
     e(  8 -  8) =     12.34731  eV     1   --> A'             
     e(  9 -  9) =     13.61588  eV     1   --> A'             
     e( 10 - 10) =     13.81516  eV     1   --> A''            
     e( 11 - 11) =     13.98563  eV     1   --> A'             
     e( 12 - 12) =     15.63503  eV     1   --> A'             
     e( 13 - 13) =     16.35121  eV     1   --> A'             
     e( 14 - 14) =     16.47798  eV     1   --> A''            
     e( 15 - 15) =     17.70695  eV     1   --> A''            
     e( 16 - 16) =     18.13784  eV     1   --> A'             

 **************************************************************************

 **************************************************************************

                    xk=(   0.63333,   0.00000,   0.00000  )

     Band symmetry, C_s (m)     point group:

     e(  1 -  1) =    -13.41432  eV     1   --> A'             
     e(  2 -  2) =    -12.93659  eV     1   --> A'             
     e(  3 -  3) =    -10.97752  eV     1   --> A'             
     e(  4 -  4) =     -0.66660  eV     1   --> A''            
     e(  5 -  5) =     -0.31998  eV     1   --> A''            
     e(  6 -  6) =     10.06564  eV     1   --> A''            
     e(  7 -  7) =     12.02971  eV     1   --> A'             
     e(  8 -  8) =     12.38863  eV     1   --> A'             
     e(  9 -  9) =     13.43744  eV     1   --> A'             
     e( 10 - 10) =     14.59936  eV     1   --> A''            
     e( 11 - 11) =     14.73852  eV     1   --> A'             
     e( 12 - 12) =     15.25139  eV     1   --> A'             
     e( 13 - 13) =     15.85670  eV     1   --> A''            
     e( 14 - 14) =     16.07638  eV     1   --> A'             
     e( 15 - 15) =     17.35028  eV     1   --> A''            
     e( 16 - 16) =     17.67786  eV     1   --> A'             

 **************************************************************************

 **************************************************************************

                    xk=(   0.66667,   0.00000,   0.00000  )

     Band symmetry, C_s (m)     point group:

     e(  1 -  1) =    -13.26773  eV     1   --> A'             
     e(  2 -  2) =    -12.83687  eV     1   --> A'             
     e(  3 -  3) =    -11.27581  eV     1   --> A'             
     e(  4 -  4) =     -0.82505  eV     1   --> A''            
     e(  5 -  5) =     -0.10287  eV     1   --> A''            
     e(  6 -  6) =      9.95556  eV     1   --> A''            
     e(  7 -  7) =     12.32720  eV     1   --> A'             
     e(  8 -  8) =     12.61427  eV     1   --> A'             
     e(  9 -  9) =     13.13083  eV     1   --> A'             
     e( 10 - 10) =     14.97120  eV     1   --> A'             
     e( 11 - 11) =     15.28726  eV     1   --> A''            
     e( 12 - 12) =     15.31391  eV     1   --> A'             
     e( 13 - 13) =     15.33220  eV     1   --> A''            
     e( 14 - 14) =     15.79061  eV     1   --> A'             
     e( 15 - 15) =     17.11132  eV     1   --> A''            
     e( 16 - 16) =     17.32210  eV     1   --> A'             

 **************************************************************************

 **************************************************************************

                    xk=(   0.65833,   0.01443,   0.00000  )

     Band symmetry, C_s (m)     point group:

     e(  1 -  1) =    -13.24080  eV     1   --> A'             
     e(  2 -  2) =    -12.94668  eV     1   --> A'             
     e(  3 -  3) =    -11.17980  eV     1   --> A'             
     e(  4 -  4) =     -0.77441  eV     1   --> A''            
     e(  5 -  5) =     -0.16999  eV     1   --> A''            
     e(  6 -  6) =      9.98424  eV     1   --> A''            
     e(  7 -  7) =     12.29910  eV     1   --> A'             
     e(  8 -  8) =     12.51235  eV     1   --> A'             
     e(  9 -  9) =     13.17553  eV     1   --> A'             
     e( 10 - 10) =     15.04295  eV     1   --> A'             
     e( 11 - 11) =     15.05757  eV     1   --> A''            
     e( 12 - 12) =     15.19664  eV     1   --> A'             
     e( 13 - 13) =     15.49041  eV     1   --> A''            
     e( 14 - 14) =     15.83669  eV     1   --> A'             
     e( 15 - 15) =     17.20180  eV     1   --> A''            
     e( 16 - 16) =     17.46075  eV     1   --> A'             

 **************************************************************************

 **************************************************************************

                    xk=(   0.65000,   0.02887,   0.00000  )

     Band symmetry, C_s (m)     point group:

     e(  1 -  1) =    -13.30943  eV     1   --> A'             
     e(  2 -  2) =    -13.01613  eV     1   --> A'             
     e(  3 -  3) =    -11.00944  eV     1   --> A'             
     e(  4 -  4) =     -0.86521  eV     1   --> A''            
     e(  5 -  5) =     -0.10189  eV     1   --> A''            
     e(  6 -  6) =     10.04035  eV     1   --> A''            
     e(  7 -  7) =     12.19332  eV     1   --> A'             
     e(  8 -  8) =     12.39761  eV     1   --> A'             
     e(  9 -  9) =     13.10085  eV     1   --> A'             
     e( 10 - 10) =     14.80740  eV     1   --> A''            
     e( 11 - 11) =     15.04819  eV     1   --> A'             
     e( 12 - 12) =     15.13971  eV     1   --> A'             
     e( 13 - 13) =     15.55275  eV     1   --> A''            
     e( 14 - 14) =     15.91600  eV     1   --> A'             
     e( 15 - 15) =     17.44434  eV     1   --> A''            
     e( 16 - 16) =     17.58333  eV     1   --> A'             

 **************************************************************************

 **************************************************************************

                    xk=(   0.64167,   0.04330,   0.00000  )

     Band symmetry, C_s (m)     point group:

     e(  1 -  1) =    -13.42333  eV     1   --> A'             
     e(  2 -  2) =    -13.08019  eV     1   --> A'             
     e(  3 -  3) =    -10.78064  eV     1   --> A'             
     e(  4 -  4) =     -1.02280  eV     1   --> A''            
     e(  5 -  5) =      0.02552  eV     1   --> A''            
     e(  6 -  6) =     10.12432  eV     1   --> A''            
     e(  7 -  7) =     12.04423  eV     1   --> A'             
     e(  8 -  8) =     12.26968  eV     1   --> A'             
     e(  9 -  9) =     12.90910  eV     1   --> A'             
     e( 10 - 10) =     14.57018  eV     1   --> A''            
     e( 11 - 11) =     14.93603  eV     1   --> A'             
     e( 12 - 12) =     15.09406  eV     1   --> A'             
     e( 13 - 13) =     15.52201  eV     1   --> A''            
     e( 14 - 14) =     16.16698  eV     1   --> A'             
     e( 15 - 15) =     17.62495  eV     1   --> A'             
     e( 16 - 16) =     17.80023  eV     1   --> A''            

 **************************************************************************

 **************************************************************************

                    xk=(   0.63333,   0.05774,   0.00000  )

     Band symmetry, C_s (m)     point group:

     e(  1 -  1) =    -13.54747  eV     1   --> A'             
     e(  2 -  2) =    -13.15684  eV     1   --> A'             
     e(  3 -  3) =    -10.51162  eV     1   --> A'             
     e(  4 -  4) =     -1.19664  eV     1   --> A''            
     e(  5 -  5) =      0.16094  eV     1   --> A''            
     e(  6 -  6) =     10.23538  eV     1   --> A''            
     e(  7 -  7) =     11.86204  eV     1   --> A'             
     e(  8 -  8) =     12.13145  eV     1   --> A'             
     e(  9 -  9) =     12.64161  eV     1   --> A'             
     e( 10 - 10) =     14.34613  eV     1   --> A''            
     e( 11 - 11) =     14.81154  eV     1   --> A'             
     e( 12 - 12) =     14.97357  eV     1   --> A'             
     e( 13 - 13) =     15.44662  eV     1   --> A''            
     e( 14 - 14) =     16.56575  eV     1   --> A'             
     e( 15 - 15) =     17.66938  eV     1   --> A'             
     e( 16 - 16) =     18.21592  eV     1   --> A''            

 **************************************************************************

 **************************************************************************

                    xk=(   0.62500,   0.07217,   0.00000  )

     Band symmetry, C_s (m)     point group:

     e(  1 -  1) =    -13.67022  eV     1   --> A'             
     e(  2 -  2) =    -13.24406  eV     1   --> A'             
     e(  3 -  3) =    -10.21676  eV     1   --> A'             
     e(  4 -  4) =     -1.36965  eV     1   --> A''            
     e(  5 -  5) =      0.28787  eV     1   --> A''            
     e(  6 -  6) =     10.37160  eV     1   --> A''            
     e(  7 -  7) =     11.63914  eV     1   --> A'             
     e(  8 -  8) =     11.98771  eV     1   --> A'             
     e(  9 -  9) =     12.34746  eV     1   --> A'             
     e( 10 - 10) =     14.13541  eV     1   --> A''            
     e( 11 - 11) =     14.68365  eV     1   --> A'             
     e( 12 - 12) =     14.82567  eV     1   --> A'             
     e( 13 - 13) =     15.35842  eV     1   --> A''            
     e( 14 - 14) =     17.03487  eV     1   --> A'             
     e( 15 - 15) =     17.74431  eV     1   --> A'             
     e( 16 - 16) =     18.65103  eV     1   --> A''            

 **************************************************************************

 **************************************************************************

                    xk=(   0.61667,   0.08660,   0.00000  )

     Band symmetry, C_s (m)     point group:

     e(  1 -  1) =    -13.78779  eV     1   --> A'             
     e(  2 -  2) =    -13.33680  eV     1   --> A'             
     e(  3 -  3) =     -9.90650  eV     1   --> A'             
     e(  4 -  4) =     -1.53622  eV     1   --> A''            
     e(  5 -  5) =      0.40095  eV     1   --> A''            
     e(  6 -  6) =     10.52945  eV     1   --> A''            
     e(  7 -  7) =     11.35698  eV     1   --> A'             
     e(  8 -  8) =     11.84271  eV     1   --> A'             
     e(  9 -  9) =     12.07364  eV     1   --> A'             
     e( 10 - 10) =     13.93804  eV     1   --> A''            
     e( 11 - 11) =     14.55515  eV     1   --> A'             
     e( 12 - 12) =     14.67354  eV     1   --> A'             
     e( 13 - 13) =     15.27521  eV     1   --> A''            
     e( 14 - 14) =     17.48797  eV     1   --> A'             
     e( 15 - 15) =     17.89991  eV     1   --> A'             
     e( 16 - 16) =     19.07334  eV     1   --> A''            

 **************************************************************************

 **************************************************************************

                    xk=(   0.60833,   0.10104,   0.00000  )

     Band symmetry, C_s (m)     point group:

     e(  1 -  1) =    -13.89848  eV     1   --> A'             
     e(  2 -  2) =    -13.43077  eV     1   --> A'             
     e(  3 -  3) =     -9.58810  eV     1   --> A'             
     e(  4 -  4) =     -1.69389  eV     1   --> A''            
     e(  5 -  5) =      0.49880  eV     1   --> A''            
     e(  6 -  6) =     10.70412  eV     1   --> A''            
     e(  7 -  7) =     11.00942  eV     1   --> A'             
     e(  8 -  8) =     11.70001  eV     1   --> A'             
     e(  9 -  9) =     11.84673  eV     1   --> A'             
     e( 10 - 10) =     13.75409  eV     1   --> A''            
     e( 11 - 11) =     14.42856  eV     1   --> A'             
     e( 12 - 12) =     14.52563  eV     1   --> A'             
     e( 13 - 13) =     15.20793  eV     1   --> A''            
     e( 14 - 14) =     17.75201  eV     1   --> A'             
     e( 15 - 15) =     18.28625  eV     1   --> A'             
     e( 16 - 16) =     19.30187  eV     1   --> A'             

 **************************************************************************

 **************************************************************************

                    xk=(   0.60000,   0.11547,   0.00000  )

     Band symmetry, C_s (m)     point group:

     e(  1 -  1) =    -14.00195  eV     1   --> A'             
     e(  2 -  2) =    -13.52302  eV     1   --> A'             
     e(  3 -  3) =     -9.26722  eV     1   --> A'             
     e(  4 -  4) =     -1.84148  eV     1   --> A''            
     e(  5 -  5) =      0.58137  eV     1   --> A''            
     e(  6 -  6) =     10.61526  eV     1   --> A'             
     e(  7 -  7) =     10.88932  eV     1   --> A''            
     e(  8 -  8) =     11.56228  eV     1   --> A'             
     e(  9 -  9) =     11.66260  eV     1   --> A'             
     e( 10 - 10) =     13.58359  eV     1   --> A''            
     e( 11 - 11) =     14.30587  eV     1   --> A'             
     e( 12 - 12) =     14.38515  eV     1   --> A'             
     e( 13 - 13) =     15.16426  eV     1   --> A''            
     e( 14 - 14) =     17.89424  eV     1   --> A'             
     e( 15 - 15) =     18.80529  eV     1   --> A'             
     e( 16 - 16) =     19.47758  eV     1   --> A'             

 **************************************************************************

 **************************************************************************

                    xk=(   0.59167,   0.12990,   0.00000  )

     Band symmetry, C_s (m)     point group:

     e(  1 -  1) =    -14.09763  eV     1   --> A'             
     e(  2 -  2) =    -13.61152  eV     1   --> A'             
     e(  3 -  3) =     -8.94843  eV     1   --> A'             
     e(  4 -  4) =     -1.97829  eV     1   --> A''            
     e(  5 -  5) =      0.64970  eV     1   --> A''            
     e(  6 -  6) =     10.19939  eV     1   --> A'             
     e(  7 -  7) =     11.07778  eV     1   --> A''            
     e(  8 -  8) =     11.43186  eV     1   --> A'             
     e(  9 -  9) =     11.50767  eV     1   --> A'             
     e( 10 - 10) =     13.42658  eV     1   --> A''            
     e( 11 - 11) =     14.18888  eV     1   --> A'             
     e( 12 - 12) =     14.25362  eV     1   --> A'             
     e( 13 - 13) =     15.15032  eV     1   --> A''            
     e( 14 - 14) =     18.02102  eV     1   --> A'             
     e( 15 - 15) =     19.24786  eV     1   --> A'             
     e( 16 - 16) =     19.41755  eV     1   --> A''            

 **************************************************************************

 **************************************************************************

                    xk=(   0.58333,   0.14434,   0.00000  )

     Band symmetry, C_s (m)     point group:

     e(  1 -  1) =    -14.18531  eV     1   --> A'             
     e(  2 -  2) =    -13.69494  eV     1   --> A'             
     e(  3 -  3) =     -8.63591  eV     1   --> A'             
     e(  4 -  4) =     -2.10393  eV     1   --> A''            
     e(  5 -  5) =      0.70512  eV     1   --> A''            
     e(  6 -  6) =      9.78005  eV     1   --> A'             
     e(  7 -  7) =     11.26157  eV     1   --> A''            
     e(  8 -  8) =     11.31045  eV     1   --> A'             
     e(  9 -  9) =     11.37278  eV     1   --> A'             
     e( 10 - 10) =     13.28309  eV     1   --> A''            
     e( 11 - 11) =     14.07894  eV     1   --> A'             
     e( 12 - 12) =     14.13189  eV     1   --> A'             
     e( 13 - 13) =     15.17097  eV     1   --> A''            
     e( 14 - 14) =     18.15082  eV     1   --> A'             
     e( 15 - 15) =     19.27891  eV     1   --> A''            
     e( 16 - 16) =     19.45910  eV     1   --> A'             

 **************************************************************************

 **************************************************************************

                    xk=(   0.57500,   0.15877,   0.00000  )

     Band symmetry, C_s (m)     point group:

     e(  1 -  1) =    -14.26470  eV     1   --> A'             
     e(  2 -  2) =    -13.77208  eV     1   --> A'             
     e(  3 -  3) =     -8.33355  eV     1   --> A'             
     e(  4 -  4) =     -2.21801  eV     1   --> A''            
     e(  5 -  5) =      0.74928  eV     1   --> A''            
     e(  6 -  6) =      9.36986  eV     1   --> A'             
     e(  7 -  7) =     11.19925  eV     1   --> A'             
     e(  8 -  8) =     11.25340  eV     1   --> A'             
     e(  9 -  9) =     11.43298  eV     1   --> A''            
     e( 10 - 10) =     13.15315  eV     1   --> A''            
     e( 11 - 11) =     13.97718  eV     1   --> A'             
     e( 12 - 12) =     14.02058  eV     1   --> A'             
     e( 13 - 13) =     15.22942  eV     1   --> A''            
     e( 14 - 14) =     18.28704  eV     1   --> A'             
     e( 15 - 15) =     19.15313  eV     1   --> A''            
     e( 16 - 16) =     19.55457  eV     1   --> A'             

 **************************************************************************

 **************************************************************************

                    xk=(   0.56667,   0.17320,   0.00000  )

     Band symmetry, C_s (m)     point group:

     e(  1 -  1) =    -14.33599  eV     1   --> A'             
     e(  2 -  2) =    -13.84236  eV     1   --> A'             
     e(  3 -  3) =     -8.04568  eV     1   --> A'             
     e(  4 -  4) =     -2.32048  eV     1   --> A''            
     e(  5 -  5) =      0.78373  eV     1   --> A''            
     e(  6 -  6) =      8.97773  eV     1   --> A'             
     e(  7 -  7) =     11.09882  eV     1   --> A'             
     e(  8 -  8) =     11.14748  eV     1   --> A'             
     e(  9 -  9) =     11.58532  eV     1   --> A''            
     e( 10 - 10) =     13.03676  eV     1   --> A''            
     e( 11 - 11) =     13.88431  eV     1   --> A'             
     e( 12 - 12) =     13.92011  eV     1   --> A'             
     e( 13 - 13) =     15.32591  eV     1   --> A''            
     e( 14 - 14) =     18.42954  eV     1   --> A'             
     e( 15 - 15) =     19.04015  eV     1   --> A''            
     e( 16 - 16) =     19.60901  eV     1   --> A'             

 **************************************************************************

 **************************************************************************

                    xk=(   0.55833,   0.18764,   0.00000  )

     Band symmetry, C_s (m)     point group:

     e(  1 -  1) =    -14.39898  eV     1   --> A'             
     e(  2 -  2) =    -13.90525  eV     1   --> A'             
     e(  3 -  3) =     -7.77630  eV     1   --> A'             
     e(  4 -  4) =     -2.41112  eV     1   --> A''            
     e(  5 -  5) =      0.81019  eV     1   --> A''            
     e(  6 -  6) =      8.61165  eV     1   --> A'             
     e(  7 -  7) =     11.00965  eV     1   --> A'             
     e(  8 -  8) =     11.05424  eV     1   --> A'             
     e(  9 -  9) =     11.71444  eV     1   --> A''            
     e( 10 - 10) =     12.93396  eV     1   --> A''            
     e( 11 - 11) =     13.80103  eV     1   --> A'             
     e( 12 - 12) =     13.83091  eV     1   --> A'             
     e( 13 - 13) =     15.45723  eV     1   --> A''            
     e( 14 - 14) =     18.57787  eV     1   --> A'             
     e( 15 - 15) =     18.94010  eV     1   --> A''            
     e( 16 - 16) =     19.64160  eV     1   --> A'             

 **************************************************************************

 **************************************************************************

                    xk=(   0.55000,   0.20207,   0.00000  )

     Band symmetry, C_s (m)     point group:

     e(  1 -  1) =    -14.45356  eV     1   --> A'             
     e(  2 -  2) =    -13.96037  eV     1   --> A'             
     e(  3 -  3) =     -7.52987  eV     1   --> A'             
     e(  4 -  4) =     -2.48990  eV     1   --> A''            
     e(  5 -  5) =      0.82993  eV     1   --> A''            
     e(  6 -  6) =      8.27809  eV     1   --> A'             
     e(  7 -  7) =     10.93200  eV     1   --> A'             
     e(  8 -  8) =     10.97335  eV     1   --> A'             
     e(  9 -  9) =     11.81874  eV     1   --> A''            
     e( 10 - 10) =     12.84474  eV     1   --> A''            
     e( 11 - 11) =     13.72782  eV     1   --> A'             
     e( 12 - 12) =     13.75328  eV     1   --> A'             
     e( 13 - 13) =     15.61556  eV     1   --> A''            
     e( 14 - 14) =     18.73110  eV     1   --> A'             
     e( 15 - 15) =     18.85297  eV     1   --> A''            
     e( 16 - 16) =     19.66008  eV     1   --> A'             

 **************************************************************************

 **************************************************************************

                    xk=(   0.54167,   0.21651,   0.00000  )

     Band symmetry, C_s (m)     point group:

     e(  1 -  1) =    -14.49986  eV     1   --> A'             
     e(  2 -  2) =    -14.00738  eV     1   --> A'             
     e(  3 -  3) =     -7.31095  eV     1   --> A'             
     e(  4 -  4) =     -2.55666  eV     1   --> A''            
     e(  5 -  5) =      0.84435  eV     1   --> A''            
     e(  6 -  6) =      7.98330  eV     1   --> A'             
     e(  7 -  7) =     10.86603  eV     1   --> A'             
     e(  8 -  8) =     10.90477  eV     1   --> A'             
     e(  9 -  9) =     11.89928  eV     1   --> A''            
     e( 10 - 10) =     12.76915  eV     1   --> A''            
     e( 11 - 11) =     13.66508  eV     1   --> A'             
     e( 12 - 12) =     13.68742  eV     1   --> A'             
     e( 13 - 13) =     15.78890  eV     1   --> A''            
     e( 14 - 14) =     18.77886  eV     1   --> A''            
     e( 15 - 15) =     18.88860  eV     1   --> A'             
     e( 16 - 16) =     19.66926  eV     1   --> A'             

 **************************************************************************

 **************************************************************************

                    xk=(   0.53333,   0.23094,   0.00000  )

     Band symmetry, C_s (m)     point group:

     e(  1 -  1) =    -14.53768  eV     1   --> A'             
     e(  2 -  2) =    -14.04609  eV     1   --> A'             
     e(  3 -  3) =     -7.12386  eV     1   --> A'             
     e(  4 -  4) =     -2.61133  eV     1   --> A''            
     e(  5 -  5) =      0.85471  eV     1   --> A''            
     e(  6 -  6) =      7.73293  eV     1   --> A'             
     e(  7 -  7) =     10.81190  eV     1   --> A'             
     e(  8 -  8) =     10.84853  eV     1   --> A'             
     e(  9 -  9) =     11.95890  eV     1   --> A''            
     e( 10 - 10) =     12.70721  eV     1   --> A''            
     e( 11 - 11) =     13.61319  eV     1   --> A'             
     e( 12 - 12) =     13.63351  eV     1   --> A'             
     e( 13 - 13) =     15.96250  eV     1   --> A''            
     e( 14 - 14) =     18.71787  eV     1   --> A''            
     e( 15 - 15) =     19.04954  eV     1   --> A'             
     e( 16 - 16) =     19.67277  eV     1   --> A'             

 **************************************************************************

 **************************************************************************

                    xk=(   0.52500,   0.24537,   0.00000  )

     Band symmetry, C_s (m)     point group:

     e(  1 -  1) =    -14.56704  eV     1   --> A'             
     e(  2 -  2) =    -14.07628  eV     1   --> A'             
     e(  3 -  3) =     -6.97303  eV     1   --> A'             
     e(  4 -  4) =     -2.65391  eV     1   --> A''            
     e(  5 -  5) =      0.86174  eV     1   --> A''            
     e(  6 -  6) =      7.53219  eV     1   --> A'             
     e(  7 -  7) =     10.76974  eV     1   --> A'             
     e(  8 -  8) =     10.80472  eV     1   --> A'             
     e(  9 -  9) =     12.00072  eV     1   --> A''            
     e( 10 - 10) =     12.65896  eV     1   --> A''            
     e( 11 - 11) =     13.57246  eV     1   --> A'             
     e( 12 - 12) =     13.59161  eV     1   --> A'             
     e( 13 - 13) =     16.11952  eV     1   --> A''            
     e( 14 - 14) =     18.67012  eV     1   --> A''            
     e( 15 - 15) =     19.21314  eV     1   --> A'             
     e( 16 - 16) =     19.67313  eV     1   --> A'             

 **************************************************************************

 **************************************************************************

                    xk=(   0.51667,   0.25981,   0.00000  )

     Band symmetry, C_s (m)     point group:

     e(  1 -  1) =    -14.58802  eV     1   --> A'             
     e(  2 -  2) =    -14.09798  eV     1   --> A'             
     e(  3 -  3) =     -6.86225  eV     1   --> A'             
     e(  4 -  4) =     -2.68435  eV     1   --> A''            
     e(  5 -  5) =      0.86622  eV     1   --> A''            
     e(  6 -  6) =      7.38538  eV     1   --> A'             
     e(  7 -  7) =     10.73958  eV     1   --> A'             
     e(  8 -  8) =     10.77335  eV     1   --> A'             
     e(  9 -  9) =     12.02804  eV     1   --> A''            
     e( 10 - 10) =     12.62444  eV     1   --> A''            
     e( 11 - 11) =     13.54314  eV     1   --> A'             
     e( 12 - 12) =     13.56171  eV     1   --> A'             
     e( 13 - 13) =     16.24456  eV     1   --> A''            
     e( 14 - 14) =     18.63578  eV     1   --> A''            
     e( 15 - 15) =     19.37710  eV     1   --> A'             
     e( 16 - 16) =     19.67200  eV     1   --> A'             

 **************************************************************************

 **************************************************************************

                    xk=(   0.50833,   0.27424,   0.00000  )

     Band symmetry, C_s (m)     point group:

     e(  1 -  1) =    -14.60066  eV     1   --> A'             
     e(  2 -  2) =    -14.11105  eV     1   --> A'             
     e(  3 -  3) =     -6.79459  eV     1   --> A'             
     e(  4 -  4) =     -2.70267  eV     1   --> A''            
     e(  5 -  5) =      0.86860  eV     1   --> A''            
     e(  6 -  6) =      7.29584  eV     1   --> A'             
     e(  7 -  7) =     10.72144  eV     1   --> A'             
     e(  8 -  8) =     10.75450  eV     1   --> A'             
     e(  9 -  9) =     12.04337  eV     1   --> A''            
     e( 10 - 10) =     12.60369  eV     1   --> A''            
     e( 11 - 11) =     13.52546  eV     1   --> A'             
     e( 12 - 12) =     13.54377  eV     1   --> A'             
     e( 13 - 13) =     16.32505  eV     1   --> A''            
     e( 14 - 14) =     18.61506  eV     1   --> A''            
     e( 15 - 15) =     19.53669  eV     1   --> A'             
     e( 16 - 16) =     19.67066  eV     1   --> A'             

 **************************************************************************

 **************************************************************************

                    xk=(   0.50000,   0.28868,   0.00000  )

     Band symmetry, C_s (m)     point group:

     e(  1 -  1) =    -14.60492  eV     1   --> A'             
     e(  2 -  2) =    -14.11543  eV     1   --> A'             
     e(  3 -  3) =     -6.77181  eV     1   --> A'             
     e(  4 -  4) =     -2.70879  eV     1   --> A''            
     e(  5 -  5) =      0.86938  eV     1   --> A''            
     e(  6 -  6) =      7.26539  eV     1   --> A'             
     e(  7 -  7) =     10.71538  eV     1   --> A'             
     e(  8 -  8) =     10.74819  eV     1   --> A'             
     e(  9 -  9) =     12.04831  eV     1   --> A''            
     e( 10 - 10) =     12.59678  eV     1   --> A''            
     e( 11 - 11) =     13.51953  eV     1   --> A'             
     e( 12 - 12) =     13.53777  eV     1   --> A'             
     e( 13 - 13) =     16.35282  eV     1   --> A''            
     e( 14 - 14) =     18.60813  eV     1   --> A''            
     e( 15 - 15) =     19.64331  eV     1   --> A'             
     e( 16 - 16) =     19.66830  eV     1   --> A'             

 **************************************************************************

 **************************************************************************

                    xk=(   0.47500,   0.27424,   0.00000  )

     Band symmetry, C_s (m)     point group:

     e(  1 -  1) =    -14.95002  eV     1   --> A'             
     e(  2 -  2) =    -13.74931  eV     1   --> A'             
     e(  3 -  3) =     -6.75559  eV     1   --> A'             
     e(  4 -  4) =     -2.82477  eV     1   --> A''            
     e(  5 -  5) =      1.01002  eV     1   --> A''            
     e(  6 -  6) =      7.27220  eV     1   --> A'             
     e(  7 -  7) =      9.96491  eV     1   --> A'             
     e(  8 -  8) =     11.52673  eV     1   --> A'             
     e(  9 -  9) =     11.55487  eV     1   --> A''            
     e( 10 - 10) =     12.76261  eV     1   --> A'             
     e( 11 - 11) =     13.09615  eV     1   --> A''            
     e( 12 - 12) =     14.32290  eV     1   --> A'             
     e( 13 - 13) =     16.27400  eV     1   --> A''            
     e( 14 - 14) =     18.66348  eV     1   --> A''            
     e( 15 - 15) =     19.13762  eV     1   --> A'             
     e( 16 - 16) =     19.69538  eV     1   --> A'             

 **************************************************************************

 **************************************************************************

                    xk=(   0.45000,   0.25981,   0.00000  )

     Band symmetry, C_s (m)     point group:

     e(  1 -  1) =    -15.44037  eV     1   --> A'             
     e(  2 -  2) =    -13.19640  eV     1   --> A'             
     e(  3 -  3) =     -6.70728  eV     1   --> A'             
     e(  4 -  4) =     -3.12837  eV     1   --> A''            
     e(  5 -  5) =      1.38687  eV     1   --> A''            
     e(  6 -  6) =      7.29085  eV     1   --> A'             
     e(  7 -  7) =      9.23114  eV     1   --> A'             
     e(  8 -  8) =     10.88062  eV     1   --> A''            
     e(  9 -  9) =     12.02902  eV     1   --> A'             
     e( 10 - 10) =     12.34195  eV     1   --> A'             
     e( 11 - 11) =     13.77218  eV     1   --> A''            
     e( 12 - 12) =     15.13835  eV     1   --> A'             
     e( 13 - 13) =     16.07639  eV     1   --> A''            
     e( 14 - 14) =     18.57522  eV     1   --> A'             
     e( 15 - 15) =     18.82229  eV     1   --> A''            
     e( 16 - 16) =     19.36118  eV     1   --> A'             

 **************************************************************************

 **************************************************************************

                    xk=(   0.42500,   0.24537,   0.00000  )

     Band symmetry, C_s (m)     point group:

     e(  1 -  1) =    -15.92369  eV     1   --> A'             
     e(  2 -  2) =    -12.60950  eV     1   --> A'             
     e(  3 -  3) =     -6.62692  eV     1   --> A'             
     e(  4 -  4) =     -3.53854  eV     1   --> A''            
     e(  5 -  5) =      1.91784  eV     1   --> A''            
     e(  6 -  6) =      7.31990  eV     1   --> A'             
     e(  7 -  7) =      8.53457  eV     1   --> A'             
     e(  8 -  8) =     10.21621  eV     1   --> A''            
     e(  9 -  9) =     11.33054  eV     1   --> A'             
     e( 10 - 10) =     13.16489  eV     1   --> A'             
     e( 11 - 11) =     14.35344  eV     1   --> A''            
     e( 12 - 12) =     15.88707  eV     1   --> A''            
     e( 13 - 13) =     15.96357  eV     1   --> A'             
     e( 14 - 14) =     17.99874  eV     1   --> A'             
     e( 15 - 15) =     18.84536  eV     1   --> A'             
     e( 16 - 16) =     19.07525  eV     1   --> A''            

 **************************************************************************

 **************************************************************************

                    xk=(   0.40000,   0.23094,   0.00000  )

     Band symmetry, C_s (m)     point group:

     e(  1 -  1) =    -16.38705  eV     1   --> A'             
     e(  2 -  2) =    -12.00273  eV     1   --> A'             
     e(  3 -  3) =     -6.51495  eV     1   --> A'             
     e(  4 -  4) =     -3.99559  eV     1   --> A''            
     e(  5 -  5) =      2.54145  eV     1   --> A''            
     e(  6 -  6) =      7.34833  eV     1   --> A'             
     e(  7 -  7) =      7.88707  eV     1   --> A'             
     e(  8 -  8) =      9.57784  eV     1   --> A''            
     e(  9 -  9) =     10.66907  eV     1   --> A'             
     e( 10 - 10) =     13.97167  eV     1   --> A'             
     e( 11 - 11) =     14.57402  eV     1   --> A''            
     e( 12 - 12) =     15.99352  eV     1   --> A''            
     e( 13 - 13) =     16.77920  eV     1   --> A'             
     e( 14 - 14) =     17.42688  eV     1   --> A'             
     e( 15 - 15) =     18.19089  eV     1   --> A'             
     e( 16 - 16) =     19.42185  eV     1   --> A''            

 **************************************************************************

 **************************************************************************

                    xk=(   0.37500,   0.21651,   0.00000  )

     Band symmetry, C_s (m)     point group:

     e(  1 -  1) =    -16.82690  eV     1   --> A'             
     e(  2 -  2) =    -11.38123  eV     1   --> A'             
     e(  3 -  3) =     -6.37183  eV     1   --> A'             
     e(  4 -  4) =     -4.46561  eV     1   --> A''            
     e(  5 -  5) =      3.22123  eV     1   --> A''            
     e(  6 -  6) =      7.17116  eV     1   --> A'             
     e(  7 -  7) =      7.49332  eV     1   --> A'             
     e(  8 -  8) =      8.97105  eV     1   --> A''            
     e(  9 -  9) =     10.04615  eV     1   --> A'             
     e( 10 - 10) =     14.36019  eV     1   --> A''            
     e( 11 - 11) =     14.71707  eV     1   --> A'             
     e( 12 - 12) =     16.48547  eV     1   --> A''            
     e( 13 - 13) =     16.87117  eV     1   --> A'             
     e( 14 - 14) =     17.42156  eV     1   --> A'             
     e( 15 - 15) =     17.57718  eV     1   --> A'             
     e( 16 - 16) =     19.86569  eV     1   --> A''            

 **************************************************************************

 **************************************************************************

                    xk=(   0.35000,   0.20207,   0.00000  )

     Band symmetry, C_s (m)     point group:

     e(  1 -  1) =    -17.24187  eV     1   --> A'             
     e(  2 -  2) =    -10.74873  eV     1   --> A'             
     e(  3 -  3) =     -6.19841  eV     1   --> A'             
     e(  4 -  4) =     -4.92986  eV     1   --> A''            
     e(  5 -  5) =      3.93548  eV     1   --> A''            
     e(  6 -  6) =      6.62327  eV     1   --> A'             
     e(  7 -  7) =      7.51696  eV     1   --> A'             
     e(  8 -  8) =      8.39897  eV     1   --> A''            
     e(  9 -  9) =      9.46320  eV     1   --> A'             
     e( 10 - 10) =     13.98511  eV     1   --> A''            
     e( 11 - 11) =     15.32281  eV     1   --> A'             
     e( 12 - 12) =     16.33808  eV     1   --> A'             
     e( 13 - 13) =     16.62047  eV     1   --> A'             
     e( 14 - 14) =     17.09831  eV     1   --> A''            
     e( 15 - 15) =     18.29883  eV     1   --> A'             
     e( 16 - 16) =     20.40268  eV     1   --> A''            

 **************************************************************************

 **************************************************************************

                    xk=(   0.32500,   0.18764,   0.00000  )

     Band symmetry, C_s (m)     point group:

     e(  1 -  1) =    -17.63086  eV     1   --> A'             
     e(  2 -  2) =    -10.10935  eV     1   --> A'             
     e(  3 -  3) =     -5.99562  eV     1   --> A'             
     e(  4 -  4) =     -5.37815  eV     1   --> A''            
     e(  5 -  5) =      4.66774  eV     1   --> A''            
     e(  6 -  6) =      6.08094  eV     1   --> A'             
     e(  7 -  7) =      7.57803  eV     1   --> A'             
     e(  8 -  8) =      7.86407  eV     1   --> A''            
     e(  9 -  9) =      8.92257  eV     1   --> A'             
     e( 10 - 10) =     13.57232  eV     1   --> A''            
     e( 11 - 11) =     15.66597  eV     1   --> A'             
     e( 12 - 12) =     15.78480  eV     1   --> A'             
     e( 13 - 13) =     15.84598  eV     1   --> A'             
     e( 14 - 14) =     17.71588  eV     1   --> A''            
     e( 15 - 15) =     19.03694  eV     1   --> A'             
     e( 16 - 16) =     21.00508  eV     1   --> A''            

 **************************************************************************

 **************************************************************************

                    xk=(   0.30000,   0.17320,   0.00000  )

     Band symmetry, C_s (m)     point group:

     e(  1 -  1) =    -17.99304  eV     1   --> A'             
     e(  2 -  2) =     -9.46757  eV     1   --> A'             
     e(  3 -  3) =     -5.80355  eV     1   --> A''            
     e(  4 -  4) =     -5.76466  eV     1   --> A'             
     e(  5 -  5) =      5.40516  eV     1   --> A''            
     e(  6 -  6) =      5.57398  eV     1   --> A'             
     e(  7 -  7) =      7.37000  eV     1   --> A''            
     e(  8 -  8) =      7.63818  eV     1   --> A'             
     e(  9 -  9) =      8.43104  eV     1   --> A'             
     e( 10 - 10) =     13.15972  eV     1   --> A''            
     e( 11 - 11) =     14.89195  eV     1   --> A'             
     e( 12 - 12) =     15.36578  eV     1   --> A'             
     e( 13 - 13) =     15.79817  eV     1   --> A'             
     e( 14 - 14) =     18.30919  eV     1   --> A''            
     e( 15 - 15) =     19.86389  eV     1   --> A'             
     e( 16 - 16) =     21.60274  eV     1   --> A''            

 **************************************************************************

 **************************************************************************

                    xk=(   0.27500,   0.15877,   0.00000  )

     Band symmetry, C_s (m)     point group:

     e(  1 -  1) =    -18.32784  eV     1   --> A'             
     e(  2 -  2) =     -8.82875  eV     1   --> A'             
     e(  3 -  3) =     -6.20219  eV     1   --> A''            
     e(  4 -  4) =     -5.50716  eV     1   --> A'             
     e(  5 -  5) =      5.10569  eV     1   --> A'             
     e(  6 -  6) =      6.12189  eV     1   --> A''            
     e(  7 -  7) =      6.93333  eV     1   --> A''            
     e(  8 -  8) =      7.64966  eV     1   --> A'             
     e(  9 -  9) =      8.02886  eV     1   --> A'             
     e( 10 - 10) =     12.76280  eV     1   --> A''            
     e( 11 - 11) =     14.03071  eV     1   --> A'             
     e( 12 - 12) =     14.92635  eV     1   --> A'             
     e( 13 - 13) =     15.67601  eV     1   --> A'             
     e( 14 - 14) =     18.86778  eV     1   --> A''            
     e( 15 - 15) =     20.80623  eV     1   --> A'             
     e( 16 - 16) =     22.08591  eV     1   --> A''            

 **************************************************************************

 **************************************************************************

                    xk=(   0.25000,   0.14434,   0.00000  )

     Band symmetry, C_s (m)     point group:

     e(  1 -  1) =    -18.63495  eV     1   --> A'             
     e(  2 -  2) =     -8.19901  eV     1   --> A'             
     e(  3 -  3) =     -6.57137  eV     1   --> A''            
     e(  4 -  4) =     -5.22516  eV     1   --> A'             
     e(  5 -  5) =      4.67703  eV     1   --> A'             
     e(  6 -  6) =      6.40052  eV     1   --> A''            
     e(  7 -  7) =      6.96265  eV     1   --> A''            
     e(  8 -  8) =      7.42634  eV     1   --> A'             
     e(  9 -  9) =      7.89602  eV     1   --> A'             
     e( 10 - 10) =     12.38953  eV     1   --> A''            
     e( 11 - 11) =     13.19038  eV     1   --> A'             
     e( 12 - 12) =     14.52214  eV     1   --> A'             
     e( 13 - 13) =     15.42068  eV     1   --> A'             
     e( 14 - 14) =     19.37471  eV     1   --> A''            
     e( 15 - 15) =     21.83149  eV     1   --> A'             
     e( 16 - 16) =     22.40653  eV     1   --> A''            

 **************************************************************************

 **************************************************************************

                    xk=(   0.22500,   0.12990,   0.00000  )

     Band symmetry, C_s (m)     point group:

     e(  1 -  1) =    -18.91381  eV     1   --> A'             
     e(  2 -  2) =     -7.58589  eV     1   --> A'             
     e(  3 -  3) =     -6.90900  eV     1   --> A''            
     e(  4 -  4) =     -4.92149  eV     1   --> A'             
     e(  5 -  5) =      4.28858  eV     1   --> A'             
     e(  6 -  6) =      6.06104  eV     1   --> A''            
     e(  7 -  7) =      7.07558  eV     1   --> A'             
     e(  8 -  8) =      7.62919  eV     1   --> A''            
     e(  9 -  9) =      7.91696  eV     1   --> A'             
     e( 10 - 10) =     12.04476  eV     1   --> A''            
     e( 11 - 11) =     12.38690  eV     1   --> A'             
     e( 12 - 12) =     14.15421  eV     1   --> A'             
     e( 13 - 13) =     15.09659  eV     1   --> A'             
     e( 14 - 14) =     19.79389  eV     1   --> A''            
     e( 15 - 15) =     22.66512  eV     1   --> A''            
     e( 16 - 16) =     22.85965  eV     1   --> A'             

 **************************************************************************

 **************************************************************************

                    xk=(   0.20000,   0.11547,   0.00000  )

     Band symmetry, C_s (m)     point group:

     e(  1 -  1) =    -19.16416  eV     1   --> A'             
     e(  2 -  2) =     -7.21365  eV     1   --> A''            
     e(  3 -  3) =     -6.99766  eV     1   --> A'             
     e(  4 -  4) =     -4.60002  eV     1   --> A'             
     e(  5 -  5) =      3.94060  eV     1   --> A'             
     e(  6 -  6) =      5.72465  eV     1   --> A''            
     e(  7 -  7) =      6.74035  eV     1   --> A'             
     e(  8 -  8) =      7.93853  eV     1   --> A'             
     e(  9 -  9) =      8.30225  eV     1   --> A''            
     e( 10 - 10) =     11.63828  eV     1   --> A'             
     e( 11 - 11) =     11.73156  eV     1   --> A''            
     e( 12 - 12) =     13.82298  eV     1   --> A'             
     e( 13 - 13) =     14.74685  eV     1   --> A'             
     e( 14 - 14) =     20.08016  eV     1   --> A''            
     e( 15 - 15) =     23.00775  eV     1   --> A''            
     e( 16 - 16) =     23.57193  eV     1   --> A'             

 **************************************************************************

 **************************************************************************

                    xk=(   0.17500,   0.10104,   0.00000  )

     Band symmetry, C_s (m)     point group:

     e(  1 -  1) =    -19.38557  eV     1   --> A'             
     e(  2 -  2) =     -7.48429  eV     1   --> A''            
     e(  3 -  3) =     -6.44388  eV     1   --> A'             
     e(  4 -  4) =     -4.26614  eV     1   --> A'             
     e(  5 -  5) =      3.63332  eV     1   --> A'             
     e(  6 -  6) =      5.42327  eV     1   --> A''            
     e(  7 -  7) =      6.43978  eV     1   --> A'             
     e(  8 -  8) =      7.92768  eV     1   --> A'             
     e(  9 -  9) =      8.93999  eV     1   --> A''            
     e( 10 - 10) =     10.96452  eV     1   --> A'             
     e( 11 - 11) =     11.45203  eV     1   --> A''            
     e( 12 - 12) =     13.52900  eV     1   --> A'             
     e( 13 - 13) =     14.39994  eV     1   --> A'             
     e( 14 - 14) =     20.21864  eV     1   --> A''            
     e( 15 - 15) =     23.51440  eV     1   --> A''            
     e( 16 - 16) =     23.60741  eV     1   --> A'             

 **************************************************************************

 **************************************************************************

                    xk=(   0.15000,   0.08660,   0.00000  )

     Band symmetry, C_s (m)     point group:

     e(  1 -  1) =    -19.57803  eV     1   --> A'             
     e(  2 -  2) =     -7.72013  eV     1   --> A''            
     e(  3 -  3) =     -5.93507  eV     1   --> A'             
     e(  4 -  4) =     -3.92791  eV     1   --> A'             
     e(  5 -  5) =      3.36681  eV     1   --> A'             
     e(  6 -  6) =      5.16051  eV     1   --> A''            
     e(  7 -  7) =      6.17763  eV     1   --> A'             
     e(  8 -  8) =      7.86318  eV     1   --> A'             
     e(  9 -  9) =      9.52847  eV     1   --> A''            
     e( 10 - 10) =     10.38896  eV     1   --> A'             
     e( 11 - 11) =     11.20765  eV     1   --> A''            
     e( 12 - 12) =     13.27241  eV     1   --> A'             
     e( 13 - 13) =     14.07629  eV     1   --> A'             
     e( 14 - 14) =     20.24346  eV     1   --> A''            
     e( 15 - 15) =     23.42737  eV     1   --> A'             
     e( 16 - 16) =     24.03425  eV     1   --> A'             

 **************************************************************************

 **************************************************************************

                    xk=(   0.12500,   0.07217,   0.00000  )

     Band symmetry, C_s (m)     point group:

     e(  1 -  1) =    -19.74116  eV     1   --> A'             
     e(  2 -  2) =     -7.92059  eV     1   --> A''            
     e(  3 -  3) =     -5.48118  eV     1   --> A'             
     e(  4 -  4) =     -3.59664  eV     1   --> A'             
     e(  5 -  5) =      3.14123  eV     1   --> A'             
     e(  6 -  6) =      4.93745  eV     1   --> A''            
     e(  7 -  7) =      5.95524  eV     1   --> A'             
     e(  8 -  8) =      7.73085  eV     1   --> A'             
     e(  9 -  9) =      9.93422  eV     1   --> A'             
     e( 10 - 10) =     10.05498  eV     1   --> A''            
     e( 11 - 11) =     10.99948  eV     1   --> A''            
     e( 12 - 12) =     13.05364  eV     1   --> A'             
     e( 13 - 13) =     13.79067  eV     1   --> A'             
     e( 14 - 14) =     20.20445  eV     1   --> A''            
     e( 15 - 15) =     23.17563  eV     1   --> A'             
     e( 16 - 16) =     23.70270  eV     1   --> A'             

 **************************************************************************

 **************************************************************************

                    xk=(   0.10000,   0.05773,   0.00000  )

     Band symmetry, C_s (m)     point group:

     e(  1 -  1) =    -19.87482  eV     1   --> A'             
     e(  2 -  2) =     -8.08515  eV     1   --> A''            
     e(  3 -  3) =     -5.09195  eV     1   --> A'             
     e(  4 -  4) =     -3.28692  eV     1   --> A'             
     e(  5 -  5) =      2.95663  eV     1   --> A'             
     e(  6 -  6) =      4.75458  eV     1   --> A''            
     e(  7 -  7) =      5.77311  eV     1   --> A'             
     e(  8 -  8) =      7.53608  eV     1   --> A'             
     e(  9 -  9) =      9.60711  eV     1   --> A'             
     e( 10 - 10) =     10.50822  eV     1   --> A''            
     e( 11 - 11) =     10.82842  eV     1   --> A''            
     e( 12 - 12) =     12.87310  eV     1   --> A'             
     e( 13 - 13) =     13.55365  eV     1   --> A'             
     e( 14 - 14) =     20.13958  eV     1   --> A''            
     e( 15 - 15) =     22.87246  eV     1   --> A'             
     e( 16 - 16) =     23.46620  eV     1   --> A'             

 **************************************************************************

 **************************************************************************

                    xk=(   0.07500,   0.04330,   0.00000  )

     Band symmetry, C_s (m)     point group:

     e(  1 -  1) =    -19.97897  eV     1   --> A'             
     e(  2 -  2) =     -8.21353  eV     1   --> A''            
     e(  3 -  3) =     -4.77734  eV     1   --> A'             
     e(  4 -  4) =     -3.01708  eV     1   --> A'             
     e(  5 -  5) =      2.81303  eV     1   --> A'             
     e(  6 -  6) =      4.61214  eV     1   --> A''            
     e(  7 -  7) =      5.63142  eV     1   --> A'             
     e(  8 -  8) =      7.31230  eV     1   --> A'             
     e(  9 -  9) =      9.38976  eV     1   --> A'             
     e( 10 - 10) =     10.69409  eV     1   --> A''            
     e( 11 - 11) =     10.87650  eV     1   --> A''            
     e( 12 - 12) =     12.73143  eV     1   --> A'             
     e( 13 - 13) =     13.37040  eV     1   --> A'             
     e( 14 - 14) =     20.07215  eV     1   --> A''            
     e( 15 - 15) =     22.57480  eV     1   --> A'             
     e( 16 - 16) =     23.31180  eV     1   --> A'             

 **************************************************************************

 **************************************************************************

                    xk=(   0.05000,   0.02887,   0.00000  )

     Band symmetry, C_s (m)     point group:

     e(  1 -  1) =    -20.05338  eV     1   --> A'             
     e(  2 -  2) =     -8.30538  eV     1   --> A''            
     e(  3 -  3) =     -4.54494  eV     1   --> A'             
     e(  4 -  4) =     -2.80577  eV     1   --> A'             
     e(  5 -  5) =      2.71048  eV     1   --> A'             
     e(  6 -  6) =      4.51030  eV     1   --> A''            
     e(  7 -  7) =      5.53028  eV     1   --> A'             
     e(  8 -  8) =      7.10972  eV     1   --> A'             
     e(  9 -  9) =      9.25524  eV     1   --> A'             
     e( 10 - 10) =     10.59861  eV     1   --> A''            
     e( 11 - 11) =     11.14794  eV     1   --> A''            
     e( 12 - 12) =     12.62957  eV     1   --> A'             
     e( 13 - 13) =     13.24187  eV     1   --> A'             
     e( 14 - 14) =     20.01615  eV     1   --> A''            
     e( 15 - 15) =     22.33567  eV     1   --> A'             
     e( 16 - 16) =     23.21205  eV     1   --> A'             

 **************************************************************************

 **************************************************************************

                    xk=(   0.02500,   0.01443,   0.00000  )

     Band symmetry, C_s (m)     point group:

     e(  1 -  1) =    -20.09807  eV     1   --> A'             
     e(  2 -  2) =     -8.36047  eV     1   --> A''            
     e(  3 -  3) =     -4.40221  eV     1   --> A'             
     e(  4 -  4) =     -2.67070  eV     1   --> A'             
     e(  5 -  5) =      2.64896  eV     1   --> A'             
     e(  6 -  6) =      4.44918  eV     1   --> A''            
     e(  7 -  7) =      5.46965  eV     1   --> A'             
     e(  8 -  8) =      6.97050  eV     1   --> A'             
     e(  9 -  9) =      9.18125  eV     1   --> A'             
     e( 10 - 10) =     10.54114  eV     1   --> A''            
     e( 11 - 11) =     11.31493  eV     1   --> A''            
     e( 12 - 12) =     12.56819  eV     1   --> A'             
     e( 13 - 13) =     13.16650  eV     1   --> A'             
     e( 14 - 14) =     19.97977  eV     1   --> A''            
     e( 15 - 15) =     22.18348  eV     1   --> A'             
     e( 16 - 16) =     23.15491  eV     1   --> A'             

 **************************************************************************

 **************************************************************************

                    xk=(   0.00000,   0.00000,   0.00000  )

     point group C_2v (mm2) 
     there are  4 classes
     the character table:

       E     C2    s_v   s_v' 
A_1    1.00  1.00  1.00  1.00
A_2    1.00  1.00 -1.00 -1.00
B_1    1.00 -1.00  1.00 -1.00
B_2    1.00 -1.00 -1.00  1.00

     the symmetry operations in each class and the name of the first element:

     E        1
                                                                 
     C2       2
                                                                 
     s_v      3
                                                                 
     s_v'     4
                                                                 

     Band symmetry, C_2v (mm2)  point group:

     e(  1 -  1) =    -20.11302  eV     1   --> A_1  D_1  S_1  
     e(  2 -  2) =     -8.37890  eV     1   --> B_2  D_4  S_4  
     e(  3 -  3) =     -4.35417  eV     1   --> B_1  D_3  S_3  
     e(  4 -  4) =     -2.62430  eV     1   --> A_1  D_1  S_1  
     e(  5 -  5) =      2.62844  eV     1   --> A_1  D_1  S_1  
     e(  6 -  6) =      4.42880  eV     1   --> B_2  D_4  S_4  
     e(  7 -  7) =      5.44944  eV     1   --> A_1  D_1  S_1  
     e(  8 -  8) =      6.92101  eV     1   --> A_1  D_1  S_1  
     e(  9 -  9) =      9.15721  eV     1   --> B_1  D_3  S_3  
     e( 10 - 10) =     10.52194  eV     1   --> B_2  D_4  S_4  
     e( 11 - 11) =     11.37131  eV     1   --> B_2  D_4  S_4  
     e( 12 - 12) =     12.54763  eV     1   --> A_1  D_1  S_1  
     e( 13 - 13) =     13.14173  eV     1   --> A_1  D_1  S_1  
     e( 14 - 14) =     19.96714  eV     1   --> B_2  D_4  S_4  
     e( 15 - 15) =     22.13123  eV     1   --> A_1  D_1  S_1  
     e( 16 - 16) =     23.13607  eV     1   --> A_1  D_1  S_1  

 **************************************************************************

     BANDS        :      5.64s CPU      6.10s WALL


   This run was terminated on:  14:39:47  16Nov2022            

=------------------------------------------------------------------------------=
   JOB DONE.
=------------------------------------------------------------------------------=
