
     Program PWSCF v.6.4.1 starts on 16Nov2022 at 15:19:45 

     This program is part of the open-source Quantum ESPRESSO suite
     for quantum simulation of materials; please cite
         "P. Giannozzi et al., J. Phys.:Condens. Matter 21 395502 (2009);
         "P. Giannozzi et al., J. Phys.:Condens. Matter 29 465901 (2017);
          URL http://www.quantum-espresso.org", 
     in publications or presentations arising from this work. More details at
     http://www.quantum-espresso.org/quote

     Parallel version (MPI), running on     1 processors

     MPI processes distributed on     1 nodes
     Waiting for input...
     Reading input from standard input

     Current dimensions of program PWSCF are:
     Max number of different atomic species (ntypx) = 10
     Max number of k-points (npk) =  40000
     Max angular momentum in pseudopotentials (lmaxx) =  3

     Atomic positions and unit cell read from directory:
     ./work/graphene.save/


     Subspace diagonalization in iterative solution of the eigenvalue problem:
     a serial algorithm will be used


     G-vector sticks info
     --------------------
     sticks:   dense  smooth     PW     G-vecs:    dense   smooth      PW
     Sum         211     169     61                10409     7409    1501



     bravais-lattice index     =            4
     lattice parameter (alat)  =       4.6020  a.u.
     unit-cell volume          =     337.6218 (a.u.)^3
     number of atoms/cell      =            2
     number of atomic types    =            1
     number of electrons       =         8.00
     number of Kohn-Sham states=           16
     kinetic-energy cutoff     =      30.0000  Ry
     charge density cutoff     =     150.0000  Ry
     Exchange-correlation      =  SLA  PZ   NOGX NOGC ( 1  1  0  0 0 0)

     celldm(1)=   4.602000  celldm(2)=   0.000000  celldm(3)=   4.000000
     celldm(4)=   0.000000  celldm(5)=   0.000000  celldm(6)=   0.000000

     crystal axes: (cart. coord. in units of alat)
               a(1) = (   1.000000   0.000000   0.000000 )  
               a(2) = (  -0.500000   0.866025   0.000000 )  
               a(3) = (   0.000000   0.000000   4.000000 )  

     reciprocal axes: (cart. coord. in units 2 pi/alat)
               b(1) = (  1.000000  0.577350 -0.000000 )  
               b(2) = (  0.000000  1.154701  0.000000 )  
               b(3) = (  0.000000 -0.000000  0.250000 )  


     PseudoPot. # 1 for C  read from file:
     ./C.pz-van_ak.UPF
     MD5 check sum: d40b4001ce20bbb1180eafeb54b8064c
     Pseudo is Ultrasoft, Zval =  4.0
     Generated by new atomic code, or converted to UPF format
     Using radial grid of  721 points,  4 beta functions with: 
                l(1) =   0
                l(2) =   0
                l(3) =   1
                l(4) =   1
     Q(r) pseudized with  8 coefficients,  rinner =    0.800   0.800   0.800


     atomic species   valence    mass     pseudopotential
        C              4.00    12.01070     C ( 1.00)

     24 Sym. Ops., with inversion, found (12 have fractional translation)



   Cartesian axes

     site n.     atom                  positions (alat units)
         1           C   tau(   1) = (   0.0000000   0.5773503   0.0000000  )
         2           C   tau(   2) = (   0.0000000   0.0000000   0.0000000  )

     number of k points=    61  Methfessel-Paxton smearing, width (Ry)=  0.0100
                       cart. coord. in units 2pi/alat
        k(    1) = (   0.0000000   0.0000000   0.0000000), wk =   0.0327869
        k(    2) = (   0.0333333   0.0000000   0.0000000), wk =   0.0327869
        k(    3) = (   0.0666667   0.0000000   0.0000000), wk =   0.0327869
        k(    4) = (   0.1000000   0.0000000   0.0000000), wk =   0.0327869
        k(    5) = (   0.1333333   0.0000000   0.0000000), wk =   0.0327869
        k(    6) = (   0.1666667   0.0000000   0.0000000), wk =   0.0327869
        k(    7) = (   0.2000000   0.0000000   0.0000000), wk =   0.0327869
        k(    8) = (   0.2333333   0.0000000   0.0000000), wk =   0.0327869
        k(    9) = (   0.2666667   0.0000000   0.0000000), wk =   0.0327869
        k(   10) = (   0.3000000   0.0000000   0.0000000), wk =   0.0327869
        k(   11) = (   0.3333333   0.0000000   0.0000000), wk =   0.0327869
        k(   12) = (   0.3666667   0.0000000   0.0000000), wk =   0.0327869
        k(   13) = (   0.4000000   0.0000000   0.0000000), wk =   0.0327869
        k(   14) = (   0.4333333   0.0000000   0.0000000), wk =   0.0327869
        k(   15) = (   0.4666667   0.0000000   0.0000000), wk =   0.0327869
        k(   16) = (   0.5000000   0.0000000   0.0000000), wk =   0.0327869
        k(   17) = (   0.5333333   0.0000000   0.0000000), wk =   0.0327869
        k(   18) = (   0.5666667   0.0000000   0.0000000), wk =   0.0327869
        k(   19) = (   0.6000000   0.0000000   0.0000000), wk =   0.0327869
        k(   20) = (   0.6333333   0.0000000   0.0000000), wk =   0.0327869
        k(   21) = (   0.6666667   0.0000000   0.0000000), wk =   0.0327869
        k(   22) = (   0.6583333   0.0144338   0.0000000), wk =   0.0327869
        k(   23) = (   0.6500000   0.0288675   0.0000000), wk =   0.0327869
        k(   24) = (   0.6416667   0.0433013   0.0000000), wk =   0.0327869
        k(   25) = (   0.6333333   0.0577350   0.0000000), wk =   0.0327869
        k(   26) = (   0.6250000   0.0721688   0.0000000), wk =   0.0327869
        k(   27) = (   0.6166667   0.0866025   0.0000000), wk =   0.0327869
        k(   28) = (   0.6083333   0.1010363   0.0000000), wk =   0.0327869
        k(   29) = (   0.6000000   0.1154700   0.0000000), wk =   0.0327869
        k(   30) = (   0.5916667   0.1299038   0.0000000), wk =   0.0327869
        k(   31) = (   0.5833333   0.1443375   0.0000000), wk =   0.0327869
        k(   32) = (   0.5750000   0.1587713   0.0000000), wk =   0.0327869
        k(   33) = (   0.5666667   0.1732050   0.0000000), wk =   0.0327869
        k(   34) = (   0.5583333   0.1876388   0.0000000), wk =   0.0327869
        k(   35) = (   0.5500000   0.2020725   0.0000000), wk =   0.0327869
        k(   36) = (   0.5416667   0.2165063   0.0000000), wk =   0.0327869
        k(   37) = (   0.5333333   0.2309400   0.0000000), wk =   0.0327869
        k(   38) = (   0.5250000   0.2453738   0.0000000), wk =   0.0327869
        k(   39) = (   0.5166667   0.2598075   0.0000000), wk =   0.0327869
        k(   40) = (   0.5083333   0.2742413   0.0000000), wk =   0.0327869
        k(   41) = (   0.5000000   0.2886750   0.0000000), wk =   0.0327869
        k(   42) = (   0.4750000   0.2742412   0.0000000), wk =   0.0327869
        k(   43) = (   0.4500000   0.2598075   0.0000000), wk =   0.0327869
        k(   44) = (   0.4250000   0.2453738   0.0000000), wk =   0.0327869
        k(   45) = (   0.4000000   0.2309400   0.0000000), wk =   0.0327869
        k(   46) = (   0.3750000   0.2165063   0.0000000), wk =   0.0327869
        k(   47) = (   0.3500000   0.2020725   0.0000000), wk =   0.0327869
        k(   48) = (   0.3250000   0.1876388   0.0000000), wk =   0.0327869
        k(   49) = (   0.3000000   0.1732050   0.0000000), wk =   0.0327869
        k(   50) = (   0.2750000   0.1587713   0.0000000), wk =   0.0327869
        k(   51) = (   0.2500000   0.1443375   0.0000000), wk =   0.0327869
        k(   52) = (   0.2250000   0.1299037   0.0000000), wk =   0.0327869
        k(   53) = (   0.2000000   0.1154700   0.0000000), wk =   0.0327869
        k(   54) = (   0.1750000   0.1010362   0.0000000), wk =   0.0327869
        k(   55) = (   0.1500000   0.0866025   0.0000000), wk =   0.0327869
        k(   56) = (   0.1250000   0.0721688   0.0000000), wk =   0.0327869
        k(   57) = (   0.1000000   0.0577350   0.0000000), wk =   0.0327869
        k(   58) = (   0.0750000   0.0433012   0.0000000), wk =   0.0327869
        k(   59) = (   0.0500000   0.0288675   0.0000000), wk =   0.0327869
        k(   60) = (   0.0250000   0.0144337   0.0000000), wk =   0.0327869
        k(   61) = (   0.0000000   0.0000000   0.0000000), wk =   0.0327869

     Dense  grid:    10409 G-vectors     FFT dimensions: (  18,  18,  72)

     Smooth grid:     7409 G-vectors     FFT dimensions: (  18,  18,  72)

     Estimated max dynamical RAM per process >      24.79 MB

     The potential is recalculated from file :
     ./work/graphene.save/charge-density


     negative rho (up, down):  1.647E-04 0.000E+00
     Starting wfcs are    8 randomized atomic wfcs +    8 random wfcs

     Band Structure Calculation
     Davidson diagonalization with overlap

     ethr =  1.25E-10,  avg # of iterations = 21.0

     total cpu time spent up to now is       15.1 secs

     End of band structure calculation

          k = 0.0000 0.0000 0.0000 (   915 PWs)   bands (ev):

   -20.1132  -8.3738  -3.5130  -3.5130   2.6283   4.4312   5.4524   8.0333
     8.0333  10.5271  11.3447  12.5487  13.1223  19.9806  22.1555  23.1377

          k = 0.0333 0.0000 0.0000 (   904 PWs)   bands (ev):

   -20.0931  -8.3494  -3.5935  -3.5581   2.6556   4.4583   5.4794   8.0469
     8.1222  10.5526  11.2727  12.5762  13.1526  19.9961  22.2230  23.1630

          k = 0.0667 0.0000 0.0000 (   908 PWs)   bands (ev):

   -20.0333  -8.2765  -3.8271  -3.6925   2.7376   4.5396   5.5603   8.0876
     8.3752  10.6289  11.0603  12.6580  13.2463  20.0398  22.4175  23.2400

          k = 0.1000 0.0000 0.0000 (   908 PWs)   bands (ev):

   -19.9334  -8.1552  -4.1898  -3.9108   2.8744   4.6750   5.6952   8.1595
     8.7600  10.7171  10.7555  12.7938  13.4114  20.1021  22.7137  23.3769

          k = 0.1333 0.0000 0.0000 (   910 PWs)   bands (ev):

   -19.7938  -7.9857  -4.6523  -4.2060   3.0659   4.8643   5.8844   8.2659
     9.2293  10.2581  10.9316  12.9825  13.6624  20.1606  23.0569  23.5976

          k = 0.1667 0.0000 0.0000 (   924 PWs)   bands (ev):

   -19.6147  -7.7687  -5.1857  -4.5685   3.3122   5.1071   6.1280   8.4105
     9.7009   9.7316  11.1556  13.2233  14.0170  20.1634  23.3624  23.8630

          k = 0.2000 0.0000 0.0000 (   926 PWs)   bands (ev):

   -19.3961  -7.5049  -5.7647  -4.9876   3.6133   5.4030   6.4261   8.5968
     9.0663  10.2204  11.4251  13.5153  14.4918  20.0046  23.0754  23.5916

          k = 0.2333 0.0000 0.0000 (   936 PWs)   bands (ev):

   -19.1386  -7.1952  -6.3699  -5.4521   3.9690   5.7513   6.7787   8.3730
     8.8262  10.6625  11.7359  13.8575  15.0913  19.5613  22.6703  23.7116

          k = 0.2667 0.0000 0.0000 (   944 PWs)   bands (ev):

   -18.8425  -6.9865  -6.8408  -5.9510   4.3792   6.1508   7.1856   7.6397
     9.0998  11.0448  12.0811  14.2491  15.8012  18.8648  22.6240  23.5419

          k = 0.3000 0.0000 0.0000 (   942 PWs)   bands (ev):

   -18.5082  -7.6029  -6.4736  -6.4433   4.8436   6.6001   6.8819   7.6468
     9.4173  11.3713  12.4473  14.6889  16.5880  18.0707  22.7817  22.9153

          k = 0.3333 0.0000 0.0000 (   936 PWs)   bands (ev):

   -18.1363  -8.2112  -7.0105  -6.0044   5.3621   6.1132   7.0966   8.1618
     9.7760  11.6536  12.8084  15.1753  17.3077  17.3984  22.0378  22.6004

          k = 0.3667 0.0000 0.0000 (   934 PWs)   bands (ev):

   -17.7277  -8.8050  -7.5530  -5.5270   5.3450   5.9339   7.6359   8.7297
    10.1733  11.9028  13.1102  15.7051  16.6810  18.1474  21.1004  21.6994

          k = 0.4000 0.0000 0.0000 (   944 PWs)   bands (ev):

   -17.2837  -9.3798  -8.0937  -5.0143   4.5859   6.5584   8.2104   9.3495
    10.6049  12.1274  13.2566  16.2731  16.3144  18.6544  20.1757  21.0363

          k = 0.4333 0.0000 0.0000 (   944 PWs)   bands (ev):

   -16.8054  -9.9322  -8.6255  -4.4703   3.8443   7.2346   8.8048  10.0193
    11.0638  12.3324  13.1715  16.3083  16.8687  18.6248  19.2944  20.2901

          k = 0.4667 0.0000 0.0000 (   944 PWs)   bands (ev):

   -16.2946 -10.4594  -9.1425  -3.9004   3.1264   7.9608   9.3868  10.7349
    11.5413  12.5176  12.9341  16.6137  17.4602  18.1325  18.4869  19.4487

          k = 0.5000 0.0000 0.0000 (   940 PWs)   bands (ev):

   -15.7541 -10.9595  -9.6387  -3.3114   2.4369   8.7344   9.8847  11.4849
    12.0291  12.6786  12.7411  17.0872  17.5053  17.5986  18.1754  18.6439

          k = 0.5333 0.0000 0.0000 (   946 PWs)   bands (ev):

   -15.1882 -11.4310 -10.1080  -2.7119   1.7798   9.5502  10.1782  12.2124
    12.5503  12.8000  12.8049  16.8882  16.9785  17.5726  17.8811  18.5605

          k = 0.5667 0.0000 0.0000 (   942 PWs)   bands (ev):

   -14.6037 -11.8724 -10.5420  -2.1129   1.1586  10.2151  10.3988  12.7153
    12.8795  13.2071  13.2511  16.3350  16.4199  17.1642  17.8145  18.5140

          k = 0.6000 0.0000 0.0000 (   940 PWs)   bands (ev):

   -14.0146 -12.2834 -10.9267  -1.5279   0.5758  10.1110  11.2577  12.8802
    12.9770  13.8641  14.0551  15.8727  15.9995  16.4956  17.6353  18.0749

          k = 0.6333 0.0000 0.0000 (   930 PWs)   bands (ev):

   -13.4539 -12.6628 -11.2302  -0.9732   0.0338   9.9983  12.0661  12.7887
    13.0372  14.6250  14.7852  15.5100  15.7524  15.8770  17.3015  17.6634

          k = 0.6667 0.0000 0.0000 (   936 PWs)   bands (ev):

   -13.0104 -13.0104 -11.3664  -0.4658  -0.4658   9.9512  12.6058  12.6058
    12.9852  15.2281  15.2281  15.3098  15.3098  15.6789  17.1123  17.6048

          k = 0.6583 0.0144 0.0000 (   934 PWs)   bands (ev):

   -13.1719 -12.8837 -11.3217  -0.6995  -0.2353   9.9645  12.4870  12.6186
    12.9982  15.0457  15.1047  15.3039  15.5174  15.7194  17.1869  17.5018

          k = 0.6500 0.0289 0.0000 (   934 PWs)   bands (ev):

   -13.3255 -12.8377 -11.1854  -0.9216  -0.0226  10.0060  12.3558  12.5160
    12.9448  14.7948  14.9862  15.2594  15.5894  15.9060  17.4198  17.4354

          k = 0.6417 0.0433 0.0000 (   934 PWs)   bands (ev):

   -13.4709 -12.8579 -10.9727  -1.1325   0.1710  10.0765  12.2165  12.3725
    12.7649  14.5572  14.8686  15.1394  15.5605  16.2384  17.4051  17.7740

          k = 0.6333 0.0577 0.0000 (   948 PWs)   bands (ev):

   -13.6082 -12.9199 -10.7092  -1.3321   0.3446  10.1756  12.0730  12.2046
    12.4850  14.3328  14.7502  14.9938  15.4825  16.6700  17.4086  18.1929

          k = 0.6250 0.0722 0.0000 (   948 PWs)   bands (ev):

   -13.7372 -13.0038 -10.4157  -1.5200   0.4979  10.3018  11.9290  11.9783
    12.1850  14.1218  14.6308  14.8422  15.3896  17.1676  17.4433  18.6343

          k = 0.6167 0.0866 0.0000 (   952 PWs)   bands (ev):

   -13.8579 -13.0977 -10.1056  -1.6962   0.6310  10.4520  11.6194  11.7871
    11.9734  13.9242  14.5114  14.6920  15.3004  17.5052  17.7102  19.0658

          k = 0.6083 0.1010 0.0000 (   944 PWs)   bands (ev):

   -13.9702 -13.1943  -9.7877  -1.8606   0.7449  10.6216  11.1927  11.6494
    11.8097  13.7401  14.3933  14.5467  15.2258  17.5905  18.2837  19.4560

          k = 0.6000 0.1155 0.0000 (   944 PWs)   bands (ev):

   -14.0745 -13.2897  -9.4679  -2.0131   0.8405  10.7470  10.8046  11.5178
    11.6621  13.5695  14.2784  14.4081  15.1736  17.6958  18.8738  19.5591

          k = 0.5917 0.1299 0.0000 (   948 PWs)   bands (ev):

   -14.1704 -13.3813  -9.1511  -2.1538   0.9195  10.2996  10.9940  11.3935
    11.5257  13.4125  14.1680  14.2776  15.1495  17.8177  19.4078  19.4287

          k = 0.5833 0.1443 0.0000 (   952 PWs)   bands (ev):

   -14.2581 -13.4676  -8.8412  -2.2824   0.9837   9.8608  11.1818  11.2776
    11.4000  13.2690  14.0638  14.1563  15.1586  17.9534  19.2694  19.7049

          k = 0.5750 0.1588 0.0000 (   944 PWs)   bands (ev):

   -14.3372 -13.5473  -8.5422  -2.3989   1.0349   9.4385  11.1711  11.2852
    11.3600  13.1391  13.9668  14.0450  15.2041  18.1008  19.1441  19.7835

          k = 0.5667 0.1732 0.0000 (   946 PWs)   bands (ev):

   -14.4082 -13.6198  -8.2581  -2.5033   1.0751   9.0391  11.0744  11.1815
    11.5213  13.0228  13.8781  13.9441  15.2871  18.2576  19.0317  19.8190

          k = 0.5583 0.1876 0.0000 (   946 PWs)   bands (ev):

   -14.4709 -13.6846  -7.9928  -2.5955   1.1061   8.6689  10.9881  11.0894
    11.6604  12.9202  13.7983  13.8543  15.4052  18.4220  18.9325  19.8356

          k = 0.5500 0.2021 0.0000 (   946 PWs)   bands (ev):

   -14.5251 -13.7414  -7.7506  -2.6755   1.1295   8.3334  10.9128  11.0091
    11.7748  12.8312  13.7281  13.7758  15.5515  18.5920  18.8464  19.8408

          k = 0.5417 0.2165 0.0000 (   946 PWs)   bands (ev):

   -14.5710 -13.7897  -7.5358  -2.7433   1.1467   8.0381  10.8485  10.9408
    11.8645  12.7559  13.6681  13.7090  15.7151  18.7662  18.7735  19.8394

          k = 0.5333 0.2309 0.0000 (   936 PWs)   bands (ev):

   -14.6086 -13.8295  -7.3525  -2.7988   1.1591   7.7881  10.7956  10.8847
    11.9319  12.6942  13.6185  13.6540  15.8816  18.7138  18.9425  19.8346

          k = 0.5250 0.2454 0.0000 (   928 PWs)   bands (ev):

   -14.6377 -13.8605  -7.2050  -2.8420   1.1677   7.5882  10.7543  10.8409
    11.9797  12.6463  13.5796  13.6111  16.0340  18.6674  19.1179  19.8288

          k = 0.5167 0.2598 0.0000 (   924 PWs)   bands (ev):

   -14.6585 -13.8828  -7.0967  -2.8728   1.1732   7.4422  10.7248  10.8096
    12.0112  12.6120  13.5518  13.5804  16.1566  18.6342  19.2859  19.8234

          k = 0.5083 0.2742 0.0000 (   930 PWs)   bands (ev):

   -14.6710 -13.8962  -7.0307  -2.8914   1.1762   7.3533  10.7070  10.7908
    12.0290  12.5915  13.5350  13.5619  16.2360  18.6143  19.4296  19.8197

          k = 0.5000 0.2887 0.0000 (   934 PWs)   bands (ev):

   -14.6752 -13.9007  -7.0085  -2.8976   1.1772   7.3231  10.7010  10.7845
    12.0347  12.5846  13.5294  13.5557  16.2635  18.6076  19.4962  19.8184

          k = 0.4750 0.2742 0.0000 (   926 PWs)   bands (ev):

   -14.9558 -13.5978  -6.9932  -2.9988   1.3027   7.3298   9.9728  11.5413
    11.5475  12.7750  13.0747  14.3386  16.1967  18.6490  19.1242  19.8580

          k = 0.4500 0.2598 0.0000 (   927 PWs)   bands (ev):

   -15.4233 -13.0641  -6.9480  -3.2703   1.6464   7.3482   9.2379  10.8780
    12.0376  12.3626  13.7358  15.1555  16.0275  18.5792  18.7778  19.5234

          k = 0.4250 0.2454 0.0000 (   929 PWs)   bands (ev):

   -15.9014 -12.4762  -6.8728  -3.6481   2.1432   7.3766   8.5406  10.2170
    11.3395  13.1891  14.2959  15.8699  15.9809  18.0082  19.0039  19.0057

          k = 0.4000 0.2309 0.0000 (   935 PWs)   bands (ev):

   -16.3645 -11.8606  -6.7683  -4.0787   2.7377   7.4015   7.8954   9.5813
    10.6772  14.0022  14.5113  15.9826  16.7905  17.4410  18.3464  19.3370

          k = 0.3750 0.2165 0.0000 (   935 PWs)   bands (ev):

   -16.8060 -11.2254  -6.6352  -4.5285   3.3934   7.1815   7.5434   8.9769
    10.0536  14.3175  14.7540  16.4457  16.8772  17.5671  17.5870  19.7826

          k = 0.3500 0.2021 0.0000 (   929 PWs)   bands (ev):

   -17.2232 -10.5752  -6.4749  -4.9774   4.0871   6.6262   7.5739   8.4073
     9.4703  13.9581  15.3595  16.3507  16.7619  17.0269  18.2705  20.3352

          k = 0.3250 0.1876 0.0000 (   933 PWs)   bands (ev):

   -17.6146  -9.9139  -6.2887  -5.4139   4.8001   6.0829   7.6359   7.8758
     8.9300  13.5553  15.6864  15.8792  15.8984  17.6164  18.9771  20.9648

          k = 0.3000 0.1732 0.0000 (   931 PWs)   bands (ev):

   -17.9792  -9.2457  -6.0785  -5.8302   5.5164   5.5753   7.3882   7.6960
     8.4410  13.1492  15.0185  15.3554  15.8098  18.1879  19.7869  21.6003

          k = 0.2750 0.1588 0.0000 (   929 PWs)   bands (ev):

   -18.3163  -8.5753  -6.2217  -5.8467   5.1066   6.1937   6.9768   7.6935
     8.0579  12.7568  14.1379  14.9220  15.6560  18.7338  20.7218  22.1205

          k = 0.2500 0.1443 0.0000 (   929 PWs)   bands (ev):

   -18.6255  -7.9078  -6.5852  -5.5965   4.6777   6.3782   7.0859   7.4366
     7.9685  12.3867  13.2733  14.5196  15.3781  19.2399  21.7376  22.4483

          k = 0.2250 0.1299 0.0000 (   931 PWs)   bands (ev):

   -18.9062  -7.2498  -6.9184  -5.3317   4.2889   6.0523   7.0803   7.7241
     8.0127  12.0442  12.4358  14.1526  15.0395  19.6733  22.6840  22.7452

          k = 0.2000 0.1155 0.0000 (   929 PWs)   bands (ev):

   -19.1582  -7.2194  -6.6087  -5.0572   3.9408   5.7210   6.7440   8.0671
     8.3767  11.6372  11.7328  13.8222  14.6821  19.9880  22.9908  23.4626

          k = 0.1750 0.1010 0.0000 (   919 PWs)   bands (ev):

   -19.3811  -7.4871  -5.9938  -4.7790   3.6333   5.4220   6.4431   8.1115
     8.9962  10.8880  11.4545  13.5289  14.3333  20.1589  23.4635  23.5641

          k = 0.1500 0.0866 0.0000 (   915 PWs)   bands (ev):

   -19.5748  -7.7206  -5.4162  -4.5045   3.3667   5.1607   6.1807   8.1379
     9.5671  10.1992  11.2111  13.2729  14.0128  20.2099  23.4070  24.0080

          k = 0.1250 0.0722 0.0000 (   911 PWs)   bands (ev):

   -19.7390  -7.9193  -4.8884  -4.2430   3.1411   4.9385   5.9583   8.1434
     9.5830  10.0767  11.0038  13.0545  13.7343  20.1889  23.1649  23.6959

          k = 0.1000 0.0577 0.0000 (   901 PWs)   bands (ev):

   -19.8735  -8.0824  -4.4247  -4.0048   2.9564   4.7562   5.7761   8.1293
     9.0521  10.5139  10.8337  12.8742  13.5070  20.1360  22.8723  23.4667

          k = 0.0750 0.0433 0.0000 (   909 PWs)   bands (ev):

   -19.9783  -8.2097  -4.0413  -3.8018   2.8128   4.6141   5.6344   8.1007
     8.6191  10.6979  10.8705  12.7326  13.3340  20.0765  22.5851  23.3137

          k = 0.0500 0.0289 0.0000 (   909 PWs)   bands (ev):

   -20.0532  -8.3008  -3.7531  -3.6455   2.7103   4.5125   5.5333   8.0685
     8.2982  10.6035  11.1306  12.6308  13.2144  20.0257  22.3537  23.2139

          k = 0.0250 0.0144 0.0000 (   907 PWs)   bands (ev):

   -20.0982  -8.3555  -3.5738  -3.5467   2.6488   4.4516   5.4727   8.0431
     8.1004  10.5463  11.2906  12.5693  13.1450  19.9922  22.2062  23.1566

          k = 0.0000 0.0000 0.0000 (   915 PWs)   bands (ev):

   -20.1132  -8.3738  -3.5130  -3.5130   2.6283   4.4312   5.4524   8.0333
     8.0333  10.5271  11.3447  12.5487  13.1223  19.9806  22.1555  23.1377

     Writing output data file graphene.save/

     init_run     :      0.10s CPU      0.10s WALL (       1 calls)
     electrons    :     14.81s CPU     14.88s WALL (       1 calls)

     Called by init_run:
     wfcinit      :      0.00s CPU      0.00s WALL (       1 calls)
     potinit      :      0.00s CPU      0.00s WALL (       1 calls)
     hinit0       :      0.08s CPU      0.08s WALL (       1 calls)

     Called by electrons:
     c_bands      :     14.81s CPU     14.87s WALL (       1 calls)
     v_of_rho     :      0.00s CPU      0.00s WALL (       1 calls)
     newd         :      0.01s CPU      0.01s WALL (       1 calls)

     Called by c_bands:
     init_us_2    :      0.01s CPU      0.01s WALL (      61 calls)
     cegterg      :     13.98s CPU     14.05s WALL (      88 calls)

     Called by sum_band:

     Called by *egterg:
     h_psi        :      8.91s CPU      8.94s WALL (    1427 calls)
     s_psi        :      0.35s CPU      0.36s WALL (    1427 calls)
     g_psi        :      0.08s CPU      0.08s WALL (    1278 calls)
     cdiaghg      :      1.12s CPU      1.13s WALL (    1339 calls)

     Called by h_psi:
     h_psi:pot    :      8.88s CPU      8.90s WALL (    1427 calls)
     h_psi:calbec :      0.38s CPU      0.39s WALL (    1427 calls)
     vloc_psi     :      8.12s CPU      8.15s WALL (    1427 calls)
     add_vuspsi   :      0.36s CPU      0.37s WALL (    1427 calls)

     General routines
     calbec       :      0.38s CPU      0.39s WALL (    1427 calls)
     fft          :      0.01s CPU      0.01s WALL (       5 calls)
     ffts         :      0.00s CPU      0.00s WALL (       1 calls)
     fftw         :      7.13s CPU      7.16s WALL (   26810 calls)
     interpolate  :      0.00s CPU      0.00s WALL (       1 calls)

     Parallel routines

     PWSCF        :     15.04s CPU     15.17s WALL


   This run was terminated on:  15:20: 0  16Nov2022            

=------------------------------------------------------------------------------=
   JOB DONE.
=------------------------------------------------------------------------------=
